

 Parallel Execution: Process Information
 ==============================================================================
 Rank   Node Name                              NodeID   MyNodeRank  NodeMaster
    0   x002.nifl.fysik.dtu.dk                    0          0          0
    1   x002.nifl.fysik.dtu.dk                    1          0          1
    2   x002.nifl.fysik.dtu.dk                    0          1         -1
    3   x002.nifl.fysik.dtu.dk                    1          1         -1
    4   x002.nifl.fysik.dtu.dk                    0          2         -1
    5   x002.nifl.fysik.dtu.dk                    1          2         -1
    6   x002.nifl.fysik.dtu.dk                    0          3         -1
    7   x002.nifl.fysik.dtu.dk                    1          3         -1
    8   x002.nifl.fysik.dtu.dk                    0          4         -1
    9   x002.nifl.fysik.dtu.dk                    1          4         -1
   10   x002.nifl.fysik.dtu.dk                    0          5         -1
   11   x002.nifl.fysik.dtu.dk                    1          5         -1
   12   x002.nifl.fysik.dtu.dk                    0          6         -1
   13   x002.nifl.fysik.dtu.dk                    1          6         -1
   14   x002.nifl.fysik.dtu.dk                    0          7         -1
   15   x002.nifl.fysik.dtu.dk                    1          7         -1
   16   x002.nifl.fysik.dtu.dk                    0          8         -1
   17   x002.nifl.fysik.dtu.dk                    1          8         -1
   18   x002.nifl.fysik.dtu.dk                    0          9         -1
   19   x002.nifl.fysik.dtu.dk                    1          9         -1
   20   x002.nifl.fysik.dtu.dk                    0         10         -1
   21   x002.nifl.fysik.dtu.dk                    1         10         -1
   22   x002.nifl.fysik.dtu.dk                    0         11         -1
   23   x002.nifl.fysik.dtu.dk                    1         11         -1
 ==============================================================================


May use up to 61217MB of RAM as shared memory on node 0
May use up to 61514MB of RAM as shared memory on node 1

 *******************************************************************************
 *                                                                             *
 *  --------------------------------                                           *
 *   Amsterdam Modeling Suite (AMS)              2022.102                      *
 *  --------------------------------                                           *
 *                                               r103598 2022-04-22            *
 *                                                                             *
 *                                                                             *
 *                              =================                              *
 *                              |               |                              *
 *                              |     A M S     |                              *
 *                              |               |                              *
 *                              =================                              *
 *                                                                             *
 *                                                                             *
 *   Online information and documentation:  https://www.scm.com/support/       *
 *   E-mail:  support@scm.com   info@scm.com                                   *
 *                                                                             *
 *   Scientific publications using AMS results must be properly referenced     *
 *   See the User Manuals (or the web site) for recommended citations          *
 *   The terms and conditions of the End User License Agreement apply to       *
 *   the use of AMS, https://www.scm.com/license-terms/                        *
 *                                                                             *
 **********************  x86_64_linux_intel / intelmpi  ************************
 
 Licensed to: Prof. Tejs Vegge / Technical University of Denmark / DENMARK 2022-04-05 11:47:23
 SCM User ID: u18925
  
 AMS 2022.102  RunTime: Nov02-2022 10:30:51  ShM Nodes: 2  Procs: 24

 AMS jobname: monomer_taut_ahq_reactivity_analysis
 AMS jobid  : 327772387

 Start   directory: /home/scratch3/xiaozan/auto_reaction_search/plams_workdir/monomer_taut_ahq_reactivity_analysis/
 Results directory: /home/scratch3/xiaozan/auto_reaction_search/plams_workdir/monomer_taut_ahq_reactivity_analysis/
 Scratch directory: /scratch/xiaozan/amstmp_monomer_taut_ahq_reactivity_analysis_kid0.327772387/


 Communication costs MPI_COMM_WORLD:      4.312 usec per message,   0.0184 usec per 8-byte item
 Communication costs for intra-node:      2.226 usec per message,   0.0297 usec per 8-byte item

 RNG seed: 700824501 508532767 760741045 202835335 -1599049781 -1845567315 -956857237 -1771944634



                     *************************************************************************
                     *  ADF 2022.102  RunTime: Nov02-2022 10:30:52  ShM Nodes: 2  Procs: 24  *
                     *************************************************************************
  
       ****************************
       * SINGLE POINT CALCULATION *
       ****************************
 
--------
Geometry
--------
Formula: C14H10O2
Atoms
  Index Symbol   x (angstrom)   y (angstrom)   z (angstrom)
      1      C    -4.71872100    -2.06705700    -0.23364000
      2      C    -3.33704500    -2.08621500    -0.12079600
      3      C    -2.62238100    -0.89564100     0.01141600
      4      C    -3.31667600     0.31606900     0.03066100
      5      C    -4.70998900     0.32769600    -0.07386600
      6      C    -5.41053600    -0.85743000    -0.20532000
      7      C    -1.12060400    -0.95473000     0.20326200
      8      C    -2.59975500     1.61813600     0.12282500
      9      C    -1.11434000     1.58224900     0.01983700
     10      C    -0.41638000     0.37254200     0.00822000
     11      C     0.97216500     0.39051100    -0.12383200
     12      H     1.51304800    -0.54854900    -0.13132100
     13      C     1.65036400     1.59317900    -0.24883300
     14      C     0.95251300     2.79962900    -0.23408000
     15      C    -0.42398200     2.79128700    -0.09927300
     16      H    -5.26189800    -2.99951900    -0.33988800
     17      H    -2.79693800    -3.02554100    -0.13797300
     18      H    -5.21763400     1.28475100    -0.05379300
     19      H    -6.49108300    -0.84527100    -0.28786700
     20      H     2.72958100     1.59188000    -0.35461800
     21      H     1.48529700     3.73879900    -0.32940200
     22      H    -0.99629800     3.71133700    -0.08807200
     23      O    -3.20198100     2.66614000     0.23749600
     24      O    -0.52543400    -1.99032600    -0.55981100
     25      H    -0.94455500    -1.26047400     1.24185200
     26      H    -0.63839500    -1.77891300    -1.49007500
 
Total System Charge             0.00000
 
 
----------------
ADF Engine Input
----------------
 
 Basis
 Core None
 Type TZP
 End
 ConceptualDFT
 AnalysisLevel Full
 Enabled Yes
 End
 QTAIM
 AnalysisLevel Full
 Enabled Yes
 End
 XC
 MetaHybrid M06-2X
 End
 

 Title: *** (NO TITLE) ***

 *** adf ***



 ===========================
 A T T A C H E D   F I L E S
 ===========================
  



 ===============================
 M O D E L   P A R A M E T E R S
 ===============================
  
 DENSITY FUNCTIONAL POTENTIAL (scf)
    Meta-Hybrid:                       M06-2X                                  == Not Default ==

 SPIN  (restricted / unrestr.)
    Molecule:                          Restricted                               
    Fragments:                         Restricted                               

 OTHER ASPECTS
    Relativistic Corrections:          scalar (ZORA,MAPA)                       

    Nuclear Charge Density Model:      Point Charge Nuclei                      
    Core Treatment:                    Frozen Orbital(s)                        

    Hyperfine or Zeeman Interaction:   ---                                      


 Fragment File(s)
 ----------------
 C:
         file : /home/scratch3/xiaozan/auto_reaction_search/plams_workdir/monomer_taut_ahq_reactivity_analysis/t21.18C2EFF0.C
         jobid: 0
         title: Carbon (TZP)
 H:
         file : /home/scratch3/xiaozan/auto_reaction_search/plams_workdir/monomer_taut_ahq_reactivity_analysis/t21.8A827CA.H
         jobid: 0
         title: Hydrogen (TZP)
 O:
         file : /home/scratch3/xiaozan/auto_reaction_search/plams_workdir/monomer_taut_ahq_reactivity_analysis/t21.15F3A917.O
         jobid: 0
         title: Oxygen (TZP)



 ===============
 G E O M E T R Y  ***  3D  Molecule  ***
 ===============
  

 ATOMS
 =====                            X Y Z                    CHARGE
                                (Angstrom)             Nucl     +Core       At.Mass
                       --------------------------    ----------------       -------
    1  C              -4.7187   -2.0671   -0.2336      6.00      6.00       12.0000
    2  C              -3.3370   -2.0862   -0.1208      6.00      6.00       12.0000
    3  C              -2.6224   -0.8956    0.0114      6.00      6.00       12.0000
    4  C              -3.3167    0.3161    0.0307      6.00      6.00       12.0000
    5  C              -4.7100    0.3277   -0.0739      6.00      6.00       12.0000
    6  C              -5.4105   -0.8574   -0.2053      6.00      6.00       12.0000
    7  C              -1.1206   -0.9547    0.2033      6.00      6.00       12.0000
    8  C              -2.5998    1.6181    0.1228      6.00      6.00       12.0000
    9  C              -1.1143    1.5822    0.0198      6.00      6.00       12.0000
   10  C              -0.4164    0.3725    0.0082      6.00      6.00       12.0000
   11  C               0.9722    0.3905   -0.1238      6.00      6.00       12.0000
   12  H               1.5130   -0.5485   -0.1313      1.00      1.00        1.0078
   13  C               1.6504    1.5932   -0.2488      6.00      6.00       12.0000
   14  C               0.9525    2.7996   -0.2341      6.00      6.00       12.0000
   15  C              -0.4240    2.7913   -0.0993      6.00      6.00       12.0000
   16  H              -5.2619   -2.9995   -0.3399      1.00      1.00        1.0078
   17  H              -2.7969   -3.0255   -0.1380      1.00      1.00        1.0078
   18  H              -5.2176    1.2848   -0.0538      1.00      1.00        1.0078
   19  H              -6.4911   -0.8453   -0.2879      1.00      1.00        1.0078
   20  H               2.7296    1.5919   -0.3546      1.00      1.00        1.0078
   21  H               1.4853    3.7388   -0.3294      1.00      1.00        1.0078
   22  H              -0.9963    3.7113   -0.0881      1.00      1.00        1.0078
   23  O              -3.2020    2.6661    0.2375      8.00      8.00       15.9949
   24  O              -0.5254   -1.9903   -0.5598      8.00      8.00       15.9949
   25  H              -0.9446   -1.2605    1.2419      1.00      1.00        1.0078
   26  H              -0.6384   -1.7789   -1.4901      1.00      1.00        1.0078


 FRAGMENTS
 =========                                     Atoms in this Fragment     Cart. coord.s (Angstrom)
                                               -------------------------------------------------------
    1  C                                                 1  C           -4.7187   -2.0671   -0.2336
    2  C                                                 2  C           -3.3370   -2.0862   -0.1208
    3  C                                                 3  C           -2.6224   -0.8956    0.0114
    4  C                                                 4  C           -3.3167    0.3161    0.0307
    5  C                                                 5  C           -4.7100    0.3277   -0.0739
    6  C                                                 6  C           -5.4105   -0.8574   -0.2053
    7  C                                                 7  C           -1.1206   -0.9547    0.2033
    8  C                                                 8  C           -2.5998    1.6181    0.1228
    9  C                                                 9  C           -1.1143    1.5822    0.0198
   10  C                                                10  C           -0.4164    0.3725    0.0082
   11  C                                                11  C            0.9722    0.3905   -0.1238
   12  C                                                13  C            1.6504    1.5932   -0.2488
   13  C                                                14  C            0.9525    2.7996   -0.2341
   14  C                                                15  C           -0.4240    2.7913   -0.0993
   15  H                                                12  H            1.5130   -0.5485   -0.1313
   16  H                                                16  H           -5.2619   -2.9995   -0.3399
   17  H                                                17  H           -2.7969   -3.0255   -0.1380
   18  H                                                18  H           -5.2176    1.2848   -0.0538
   19  H                                                19  H           -6.4911   -0.8453   -0.2879
   20  H                                                20  H            2.7296    1.5919   -0.3546
   21  H                                                21  H            1.4853    3.7388   -0.3294
   22  H                                                22  H           -0.9963    3.7113   -0.0881
   23  H                                                25  H           -0.9446   -1.2605    1.2419
   24  H                                                26  H           -0.6384   -1.7789   -1.4901
   25  O                                                23  O           -3.2020    2.6661    0.2375
   26  O                                                24  O           -0.5254   -1.9903   -0.5598



 =====================================
 S Y M M E T R Y ,   E L E C T R O N S
 =====================================
  
 Symmetry: NOSYM

 Irreducible Representations, including subspecies
 -------------------------------------------------
 A

 Symmetry is NOT used when fitting density


 Configuration of Valence Electrons
 ==================================
 ( determined in the SCF procedure )

 Total:   110

 Net Charge: 0 (Nuclei minus Electrons)

 Aufbau principle for MO occupations will be applied through SCF cycle no.     150
 Thereafter, the program will assign electrons to MOs that are spatially
 similar to the occupied MOs in a "reference" cycle ("KeepOrbitals").
 The reference cycle is always the PREVIOUS cycle: it will evolve with
 the SCF procedure.
1
 ***************************************************************************************************



                                      ****************************************
                                      *  B U I L D : (Fragments, Functions)  *
                                      ****************************************
  



 =======
 S F O s  ***  (Symmetrized Fragment Orbitals)  ***
 =======
  
 SFOs are linear combinations of (valence) Fragment Orbitals (FOs), such that the SFOs transform as the
 irreducible representations of the (molecular) symmetry group. Each SFO is therefore characterized by
 an irrep of the molecule and by a few (or only one) generating FOs.
 The SFOs constitute a symmetry-adapted basis for the Fock matrix. The MO eigenvector coefficients in
 this basis provide a direct interpretation of the MOs in terms of Frontier Orbital Theory.

 The SFOs are combined with auxiliary Core Functions (CFs) to ensure orthogonalization on the (frozen)
 Core Orbitals (COs). The Core-orthogonalized SFOs (CSFOs) constitute the true Fock basis.

 The FOs, and hence also the (C)SFOs are combinations of the elementary basis functions (BAS). The basis
 functions that participate in the description of the SFOs depend on the irrep. The indices of the
 involved functions are printed below for each irrep.
 (The complete list of primitive basis functions is printed in another section)

 Total nr. of (C)SFOs (summation over all irreps) :   364

 NOTE: a (C)SFO that is defined as a combination of more than one FO is usually NOT normalized.



                                       === A ===
 Nr. of SFOs :  364
 Cartesian basis functions that participate in this irrep (total number =   380) :
      1     2     3     4     5     6     9    12     7    10
     13     8    11    14    15    16    17    18    19    20
     21    22    23    24    25    26    29    32    27    30
     33    28    31    34    35    36    37    38    39    40
     41    42    43    44    45    46    49    52    47    50
     53    48    51    54    55    56    57    58    59    60
     61    62    63    64    65    66    69    72    67    70
     73    68    71    74    75    76    77    78    79    80
     81    82    83    84    85    86    89    92    87    90
     93    88    91    94    95    96    97    98    99   100
    101   102   103   104   105   106   109   112   107   110
    113   108   111   114   115   116   117   118   119   120
    121   122   123   124   125   126   129   132   127   130
    133   128   131   134   135   136   137   138   139   140
    141   142   143   144   145   146   149   152   147   150
    153   148   151   154   155   156   157   158   159   160
    161   162   163   164   165   166   169   172   167   170
    173   168   171   174   175   176   177   178   179   180
    181   182   183   184   185   186   189   192   187   190
    193   188   191   194   195   196   197   198   199   200
    201   202   203   204   205   206   209   212   207   210
    213   208   211   214   215   216   217   218   219   220
    221   222   223   224   225   226   229   232   227   230
    233   228   231   234   235   236   237   238   239   240
    241   242   243   244   245   246   249   252   247   250
    253   248   251   254   255   256   257   258   259   260
    261   262   263   264   265   266   269   272   267   270
    273   268   271   274   275   276   277   278   279   280
    281   282   283   284   285   286   287   288   289   290
    291   292   293   294   295   296   297   298   299   300
    301   302   303   304   305   306   307   308   309   310
    311   312   313   314   315   316   317   318   319   320
    321   322   323   324   325   326   327   328   329   330
    331   332   333   334   335   336   337   338   339   340
    341   342   343   344   345   346   349   352   347   350
    353   348   351   354   355   356   357   358   359   360
    361   362   363   364   365   366   369   372   367   370
    373   368   371   374   375   376   377   378   379   380

    SFO  (index         Fragment          Generating    Expansion in Fragment Orbitals
  indx  incl.CFs)   Occup   Orb.Energy   FragmentType  Coeff.   Orbital     on Fragment
 --------------------------------------------------------------------------------------
     1       1      2.000     -10.742 au  C             1.00      1 S               1
                        (    -292.309 eV)
     2       2      2.000      -0.647 au  C             1.00      2 S               1
                        (     -17.594 eV)
     3       3       --         0.433 au  C             1.00      3 S               1
                        (      11.771 eV)
     4       4       --         5.557 au  C             1.00      4 S               1
                        (     151.215 eV)
     5       5       --        49.936 au  C             1.00      5 S               1
                        (    1358.837 eV)
     6       6      0.667      -0.173 au  C             1.00      1 P:x             1
                        (      -4.721 eV)
     7       7       --         0.227 au  C             1.00      2 P:x             1
                        (       6.179 eV)
     8       8       --         2.145 au  C             1.00      3 P:x             1
                        (      58.365 eV)
     9       9      0.667      -0.173 au  C             1.00      1 P:y             1
                        (      -4.721 eV)
    10      10       --         0.227 au  C             1.00      2 P:y             1
                        (       6.179 eV)
    11      11       --         2.145 au  C             1.00      3 P:y             1
                        (      58.365 eV)
    12      12      0.667      -0.173 au  C             1.00      1 P:z             1
                        (      -4.721 eV)
    13      13       --         0.227 au  C             1.00      2 P:z             1
                        (       6.179 eV)
    14      14       --         2.145 au  C             1.00      3 P:z             1
                        (      58.365 eV)
    15      15       --         1.327 au  C             1.00      1 D:z2            1
                        (      36.114 eV)
    16      16       --         1.327 au  C             1.00      1 D:x2-y2         1
                        (      36.114 eV)
    17      17       --         1.327 au  C             1.00      1 D:xy            1
                        (      36.114 eV)
    18      18       --         1.327 au  C             1.00      1 D:xz            1
                        (      36.114 eV)
    19      19       --         1.327 au  C             1.00      1 D:yz            1
                        (      36.114 eV)
    20      20      2.000     -10.742 au  C             1.00      1 S               2
                        (    -292.309 eV)
    21      21      2.000      -0.647 au  C             1.00      2 S               2
                        (     -17.594 eV)
    22      22       --         0.433 au  C             1.00      3 S               2
                        (      11.771 eV)
    23      23       --         5.557 au  C             1.00      4 S               2
                        (     151.215 eV)
    24      24       --        49.936 au  C             1.00      5 S               2
                        (    1358.837 eV)
    25      25      0.667      -0.173 au  C             1.00      1 P:x             2
                        (      -4.721 eV)
    26      26       --         0.227 au  C             1.00      2 P:x             2
                        (       6.179 eV)
    27      27       --         2.145 au  C             1.00      3 P:x             2
                        (      58.365 eV)
    28      28      0.667      -0.173 au  C             1.00      1 P:y             2
                        (      -4.721 eV)
    29      29       --         0.227 au  C             1.00      2 P:y             2
                        (       6.179 eV)
    30      30       --         2.145 au  C             1.00      3 P:y             2
                        (      58.365 eV)
    31      31      0.667      -0.173 au  C             1.00      1 P:z             2
                        (      -4.721 eV)
    32      32       --         0.227 au  C             1.00      2 P:z             2
                        (       6.179 eV)
    33      33       --         2.145 au  C             1.00      3 P:z             2
                        (      58.365 eV)
    34      34       --         1.327 au  C             1.00      1 D:z2            2
                        (      36.114 eV)
    35      35       --         1.327 au  C             1.00      1 D:x2-y2         2
                        (      36.114 eV)
    36      36       --         1.327 au  C             1.00      1 D:xy            2
                        (      36.114 eV)
    37      37       --         1.327 au  C             1.00      1 D:xz            2
                        (      36.114 eV)
    38      38       --         1.327 au  C             1.00      1 D:yz            2
                        (      36.114 eV)
    39      39      2.000     -10.742 au  C             1.00      1 S               3
                        (    -292.309 eV)
    40      40      2.000      -0.647 au  C             1.00      2 S               3
                        (     -17.594 eV)
    41      41       --         0.433 au  C             1.00      3 S               3
                        (      11.771 eV)
    42      42       --         5.557 au  C             1.00      4 S               3
                        (     151.215 eV)
    43      43       --        49.936 au  C             1.00      5 S               3
                        (    1358.837 eV)
    44      44      0.667      -0.173 au  C             1.00      1 P:x             3
                        (      -4.721 eV)
    45      45       --         0.227 au  C             1.00      2 P:x             3
                        (       6.179 eV)
    46      46       --         2.145 au  C             1.00      3 P:x             3
                        (      58.365 eV)
    47      47      0.667      -0.173 au  C             1.00      1 P:y             3
                        (      -4.721 eV)
    48      48       --         0.227 au  C             1.00      2 P:y             3
                        (       6.179 eV)
    49      49       --         2.145 au  C             1.00      3 P:y             3
                        (      58.365 eV)
    50      50      0.667      -0.173 au  C             1.00      1 P:z             3
                        (      -4.721 eV)
    51      51       --         0.227 au  C             1.00      2 P:z             3
                        (       6.179 eV)
    52      52       --         2.145 au  C             1.00      3 P:z             3
                        (      58.365 eV)
    53      53       --         1.327 au  C             1.00      1 D:z2            3
                        (      36.114 eV)
    54      54       --         1.327 au  C             1.00      1 D:x2-y2         3
                        (      36.114 eV)
    55      55       --         1.327 au  C             1.00      1 D:xy            3
                        (      36.114 eV)
    56      56       --         1.327 au  C             1.00      1 D:xz            3
                        (      36.114 eV)
    57      57       --         1.327 au  C             1.00      1 D:yz            3
                        (      36.114 eV)
    58      58      2.000     -10.742 au  C             1.00      1 S               4
                        (    -292.309 eV)
    59      59      2.000      -0.647 au  C             1.00      2 S               4
                        (     -17.594 eV)
    60      60       --         0.433 au  C             1.00      3 S               4
                        (      11.771 eV)
    61      61       --         5.557 au  C             1.00      4 S               4
                        (     151.215 eV)
    62      62       --        49.936 au  C             1.00      5 S               4
                        (    1358.837 eV)
    63      63      0.667      -0.173 au  C             1.00      1 P:x             4
                        (      -4.721 eV)
    64      64       --         0.227 au  C             1.00      2 P:x             4
                        (       6.179 eV)
    65      65       --         2.145 au  C             1.00      3 P:x             4
                        (      58.365 eV)
    66      66      0.667      -0.173 au  C             1.00      1 P:y             4
                        (      -4.721 eV)
    67      67       --         0.227 au  C             1.00      2 P:y             4
                        (       6.179 eV)
    68      68       --         2.145 au  C             1.00      3 P:y             4
                        (      58.365 eV)
    69      69      0.667      -0.173 au  C             1.00      1 P:z             4
                        (      -4.721 eV)
    70      70       --         0.227 au  C             1.00      2 P:z             4
                        (       6.179 eV)
    71      71       --         2.145 au  C             1.00      3 P:z             4
                        (      58.365 eV)
    72      72       --         1.327 au  C             1.00      1 D:z2            4
                        (      36.114 eV)
    73      73       --         1.327 au  C             1.00      1 D:x2-y2         4
                        (      36.114 eV)
    74      74       --         1.327 au  C             1.00      1 D:xy            4
                        (      36.114 eV)
    75      75       --         1.327 au  C             1.00      1 D:xz            4
                        (      36.114 eV)
    76      76       --         1.327 au  C             1.00      1 D:yz            4
                        (      36.114 eV)
    77      77      2.000     -10.742 au  C             1.00      1 S               5
                        (    -292.309 eV)
    78      78      2.000      -0.647 au  C             1.00      2 S               5
                        (     -17.594 eV)
    79      79       --         0.433 au  C             1.00      3 S               5
                        (      11.771 eV)
    80      80       --         5.557 au  C             1.00      4 S               5
                        (     151.215 eV)
    81      81       --        49.936 au  C             1.00      5 S               5
                        (    1358.837 eV)
    82      82      0.667      -0.173 au  C             1.00      1 P:x             5
                        (      -4.721 eV)
    83      83       --         0.227 au  C             1.00      2 P:x             5
                        (       6.179 eV)
    84      84       --         2.145 au  C             1.00      3 P:x             5
                        (      58.365 eV)
    85      85      0.667      -0.173 au  C             1.00      1 P:y             5
                        (      -4.721 eV)
    86      86       --         0.227 au  C             1.00      2 P:y             5
                        (       6.179 eV)
    87      87       --         2.145 au  C             1.00      3 P:y             5
                        (      58.365 eV)
    88      88      0.667      -0.173 au  C             1.00      1 P:z             5
                        (      -4.721 eV)
    89      89       --         0.227 au  C             1.00      2 P:z             5
                        (       6.179 eV)
    90      90       --         2.145 au  C             1.00      3 P:z             5
                        (      58.365 eV)
    91      91       --         1.327 au  C             1.00      1 D:z2            5
                        (      36.114 eV)
    92      92       --         1.327 au  C             1.00      1 D:x2-y2         5
                        (      36.114 eV)
    93      93       --         1.327 au  C             1.00      1 D:xy            5
                        (      36.114 eV)
    94      94       --         1.327 au  C             1.00      1 D:xz            5
                        (      36.114 eV)
    95      95       --         1.327 au  C             1.00      1 D:yz            5
                        (      36.114 eV)
    96      96      2.000     -10.742 au  C             1.00      1 S               6
                        (    -292.309 eV)
    97      97      2.000      -0.647 au  C             1.00      2 S               6
                        (     -17.594 eV)
    98      98       --         0.433 au  C             1.00      3 S               6
                        (      11.771 eV)
    99      99       --         5.557 au  C             1.00      4 S               6
                        (     151.215 eV)
   100     100       --        49.936 au  C             1.00      5 S               6
                        (    1358.837 eV)
   101     101      0.667      -0.173 au  C             1.00      1 P:x             6
                        (      -4.721 eV)
   102     102       --         0.227 au  C             1.00      2 P:x             6
                        (       6.179 eV)
   103     103       --         2.145 au  C             1.00      3 P:x             6
                        (      58.365 eV)
   104     104      0.667      -0.173 au  C             1.00      1 P:y             6
                        (      -4.721 eV)
   105     105       --         0.227 au  C             1.00      2 P:y             6
                        (       6.179 eV)
   106     106       --         2.145 au  C             1.00      3 P:y             6
                        (      58.365 eV)
   107     107      0.667      -0.173 au  C             1.00      1 P:z             6
                        (      -4.721 eV)
   108     108       --         0.227 au  C             1.00      2 P:z             6
                        (       6.179 eV)
   109     109       --         2.145 au  C             1.00      3 P:z             6
                        (      58.365 eV)
   110     110       --         1.327 au  C             1.00      1 D:z2            6
                        (      36.114 eV)
   111     111       --         1.327 au  C             1.00      1 D:x2-y2         6
                        (      36.114 eV)
   112     112       --         1.327 au  C             1.00      1 D:xy            6
                        (      36.114 eV)
   113     113       --         1.327 au  C             1.00      1 D:xz            6
                        (      36.114 eV)
   114     114       --         1.327 au  C             1.00      1 D:yz            6
                        (      36.114 eV)
   115     115      2.000     -10.742 au  C             1.00      1 S               7
                        (    -292.309 eV)
   116     116      2.000      -0.647 au  C             1.00      2 S               7
                        (     -17.594 eV)
   117     117       --         0.433 au  C             1.00      3 S               7
                        (      11.771 eV)
   118     118       --         5.557 au  C             1.00      4 S               7
                        (     151.215 eV)
   119     119       --        49.936 au  C             1.00      5 S               7
                        (    1358.837 eV)
   120     120      0.667      -0.173 au  C             1.00      1 P:x             7
                        (      -4.721 eV)
   121     121       --         0.227 au  C             1.00      2 P:x             7
                        (       6.179 eV)
   122     122       --         2.145 au  C             1.00      3 P:x             7
                        (      58.365 eV)
   123     123      0.667      -0.173 au  C             1.00      1 P:y             7
                        (      -4.721 eV)
   124     124       --         0.227 au  C             1.00      2 P:y             7
                        (       6.179 eV)
   125     125       --         2.145 au  C             1.00      3 P:y             7
                        (      58.365 eV)
   126     126      0.667      -0.173 au  C             1.00      1 P:z             7
                        (      -4.721 eV)
   127     127       --         0.227 au  C             1.00      2 P:z             7
                        (       6.179 eV)
   128     128       --         2.145 au  C             1.00      3 P:z             7
                        (      58.365 eV)
   129     129       --         1.327 au  C             1.00      1 D:z2            7
                        (      36.114 eV)
   130     130       --         1.327 au  C             1.00      1 D:x2-y2         7
                        (      36.114 eV)
   131     131       --         1.327 au  C             1.00      1 D:xy            7
                        (      36.114 eV)
   132     132       --         1.327 au  C             1.00      1 D:xz            7
                        (      36.114 eV)
   133     133       --         1.327 au  C             1.00      1 D:yz            7
                        (      36.114 eV)
   134     134      2.000     -10.742 au  C             1.00      1 S               8
                        (    -292.309 eV)
   135     135      2.000      -0.647 au  C             1.00      2 S               8
                        (     -17.594 eV)
   136     136       --         0.433 au  C             1.00      3 S               8
                        (      11.771 eV)
   137     137       --         5.557 au  C             1.00      4 S               8
                        (     151.215 eV)
   138     138       --        49.936 au  C             1.00      5 S               8
                        (    1358.837 eV)
   139     139      0.667      -0.173 au  C             1.00      1 P:x             8
                        (      -4.721 eV)
   140     140       --         0.227 au  C             1.00      2 P:x             8
                        (       6.179 eV)
   141     141       --         2.145 au  C             1.00      3 P:x             8
                        (      58.365 eV)
   142     142      0.667      -0.173 au  C             1.00      1 P:y             8
                        (      -4.721 eV)
   143     143       --         0.227 au  C             1.00      2 P:y             8
                        (       6.179 eV)
   144     144       --         2.145 au  C             1.00      3 P:y             8
                        (      58.365 eV)
   145     145      0.667      -0.173 au  C             1.00      1 P:z             8
                        (      -4.721 eV)
   146     146       --         0.227 au  C             1.00      2 P:z             8
                        (       6.179 eV)
   147     147       --         2.145 au  C             1.00      3 P:z             8
                        (      58.365 eV)
   148     148       --         1.327 au  C             1.00      1 D:z2            8
                        (      36.114 eV)
   149     149       --         1.327 au  C             1.00      1 D:x2-y2         8
                        (      36.114 eV)
   150     150       --         1.327 au  C             1.00      1 D:xy            8
                        (      36.114 eV)
   151     151       --         1.327 au  C             1.00      1 D:xz            8
                        (      36.114 eV)
   152     152       --         1.327 au  C             1.00      1 D:yz            8
                        (      36.114 eV)
   153     153      2.000     -10.742 au  C             1.00      1 S               9
                        (    -292.309 eV)
   154     154      2.000      -0.647 au  C             1.00      2 S               9
                        (     -17.594 eV)
   155     155       --         0.433 au  C             1.00      3 S               9
                        (      11.771 eV)
   156     156       --         5.557 au  C             1.00      4 S               9
                        (     151.215 eV)
   157     157       --        49.936 au  C             1.00      5 S               9
                        (    1358.837 eV)
   158     158      0.667      -0.173 au  C             1.00      1 P:x             9
                        (      -4.721 eV)
   159     159       --         0.227 au  C             1.00      2 P:x             9
                        (       6.179 eV)
   160     160       --         2.145 au  C             1.00      3 P:x             9
                        (      58.365 eV)
   161     161      0.667      -0.173 au  C             1.00      1 P:y             9
                        (      -4.721 eV)
   162     162       --         0.227 au  C             1.00      2 P:y             9
                        (       6.179 eV)
   163     163       --         2.145 au  C             1.00      3 P:y             9
                        (      58.365 eV)
   164     164      0.667      -0.173 au  C             1.00      1 P:z             9
                        (      -4.721 eV)
   165     165       --         0.227 au  C             1.00      2 P:z             9
                        (       6.179 eV)
   166     166       --         2.145 au  C             1.00      3 P:z             9
                        (      58.365 eV)
   167     167       --         1.327 au  C             1.00      1 D:z2            9
                        (      36.114 eV)
   168     168       --         1.327 au  C             1.00      1 D:x2-y2         9
                        (      36.114 eV)
   169     169       --         1.327 au  C             1.00      1 D:xy            9
                        (      36.114 eV)
   170     170       --         1.327 au  C             1.00      1 D:xz            9
                        (      36.114 eV)
   171     171       --         1.327 au  C             1.00      1 D:yz            9
                        (      36.114 eV)
   172     172      2.000     -10.742 au  C             1.00      1 S              10
                        (    -292.309 eV)
   173     173      2.000      -0.647 au  C             1.00      2 S              10
                        (     -17.594 eV)
   174     174       --         0.433 au  C             1.00      3 S              10
                        (      11.771 eV)
   175     175       --         5.557 au  C             1.00      4 S              10
                        (     151.215 eV)
   176     176       --        49.936 au  C             1.00      5 S              10
                        (    1358.837 eV)
   177     177      0.667      -0.173 au  C             1.00      1 P:x            10
                        (      -4.721 eV)
   178     178       --         0.227 au  C             1.00      2 P:x            10
                        (       6.179 eV)
   179     179       --         2.145 au  C             1.00      3 P:x            10
                        (      58.365 eV)
   180     180      0.667      -0.173 au  C             1.00      1 P:y            10
                        (      -4.721 eV)
   181     181       --         0.227 au  C             1.00      2 P:y            10
                        (       6.179 eV)
   182     182       --         2.145 au  C             1.00      3 P:y            10
                        (      58.365 eV)
   183     183      0.667      -0.173 au  C             1.00      1 P:z            10
                        (      -4.721 eV)
   184     184       --         0.227 au  C             1.00      2 P:z            10
                        (       6.179 eV)
   185     185       --         2.145 au  C             1.00      3 P:z            10
                        (      58.365 eV)
   186     186       --         1.327 au  C             1.00      1 D:z2           10
                        (      36.114 eV)
   187     187       --         1.327 au  C             1.00      1 D:x2-y2        10
                        (      36.114 eV)
   188     188       --         1.327 au  C             1.00      1 D:xy           10
                        (      36.114 eV)
   189     189       --         1.327 au  C             1.00      1 D:xz           10
                        (      36.114 eV)
   190     190       --         1.327 au  C             1.00      1 D:yz           10
                        (      36.114 eV)
   191     191      2.000     -10.742 au  C             1.00      1 S              11
                        (    -292.309 eV)
   192     192      2.000      -0.647 au  C             1.00      2 S              11
                        (     -17.594 eV)
   193     193       --         0.433 au  C             1.00      3 S              11
                        (      11.771 eV)
   194     194       --         5.557 au  C             1.00      4 S              11
                        (     151.215 eV)
   195     195       --        49.936 au  C             1.00      5 S              11
                        (    1358.837 eV)
   196     196      0.667      -0.173 au  C             1.00      1 P:x            11
                        (      -4.721 eV)
   197     197       --         0.227 au  C             1.00      2 P:x            11
                        (       6.179 eV)
   198     198       --         2.145 au  C             1.00      3 P:x            11
                        (      58.365 eV)
   199     199      0.667      -0.173 au  C             1.00      1 P:y            11
                        (      -4.721 eV)
   200     200       --         0.227 au  C             1.00      2 P:y            11
                        (       6.179 eV)
   201     201       --         2.145 au  C             1.00      3 P:y            11
                        (      58.365 eV)
   202     202      0.667      -0.173 au  C             1.00      1 P:z            11
                        (      -4.721 eV)
   203     203       --         0.227 au  C             1.00      2 P:z            11
                        (       6.179 eV)
   204     204       --         2.145 au  C             1.00      3 P:z            11
                        (      58.365 eV)
   205     205       --         1.327 au  C             1.00      1 D:z2           11
                        (      36.114 eV)
   206     206       --         1.327 au  C             1.00      1 D:x2-y2        11
                        (      36.114 eV)
   207     207       --         1.327 au  C             1.00      1 D:xy           11
                        (      36.114 eV)
   208     208       --         1.327 au  C             1.00      1 D:xz           11
                        (      36.114 eV)
   209     209       --         1.327 au  C             1.00      1 D:yz           11
                        (      36.114 eV)
   210     210      2.000     -10.742 au  C             1.00      1 S              12
                        (    -292.309 eV)
   211     211      2.000      -0.647 au  C             1.00      2 S              12
                        (     -17.594 eV)
   212     212       --         0.433 au  C             1.00      3 S              12
                        (      11.771 eV)
   213     213       --         5.557 au  C             1.00      4 S              12
                        (     151.215 eV)
   214     214       --        49.936 au  C             1.00      5 S              12
                        (    1358.837 eV)
   215     215      0.667      -0.173 au  C             1.00      1 P:x            12
                        (      -4.721 eV)
   216     216       --         0.227 au  C             1.00      2 P:x            12
                        (       6.179 eV)
   217     217       --         2.145 au  C             1.00      3 P:x            12
                        (      58.365 eV)
   218     218      0.667      -0.173 au  C             1.00      1 P:y            12
                        (      -4.721 eV)
   219     219       --         0.227 au  C             1.00      2 P:y            12
                        (       6.179 eV)
   220     220       --         2.145 au  C             1.00      3 P:y            12
                        (      58.365 eV)
   221     221      0.667      -0.173 au  C             1.00      1 P:z            12
                        (      -4.721 eV)
   222     222       --         0.227 au  C             1.00      2 P:z            12
                        (       6.179 eV)
   223     223       --         2.145 au  C             1.00      3 P:z            12
                        (      58.365 eV)
   224     224       --         1.327 au  C             1.00      1 D:z2           12
                        (      36.114 eV)
   225     225       --         1.327 au  C             1.00      1 D:x2-y2        12
                        (      36.114 eV)
   226     226       --         1.327 au  C             1.00      1 D:xy           12
                        (      36.114 eV)
   227     227       --         1.327 au  C             1.00      1 D:xz           12
                        (      36.114 eV)
   228     228       --         1.327 au  C             1.00      1 D:yz           12
                        (      36.114 eV)
   229     229      2.000     -10.742 au  C             1.00      1 S              13
                        (    -292.309 eV)
   230     230      2.000      -0.647 au  C             1.00      2 S              13
                        (     -17.594 eV)
   231     231       --         0.433 au  C             1.00      3 S              13
                        (      11.771 eV)
   232     232       --         5.557 au  C             1.00      4 S              13
                        (     151.215 eV)
   233     233       --        49.936 au  C             1.00      5 S              13
                        (    1358.837 eV)
   234     234      0.667      -0.173 au  C             1.00      1 P:x            13
                        (      -4.721 eV)
   235     235       --         0.227 au  C             1.00      2 P:x            13
                        (       6.179 eV)
   236     236       --         2.145 au  C             1.00      3 P:x            13
                        (      58.365 eV)
   237     237      0.667      -0.173 au  C             1.00      1 P:y            13
                        (      -4.721 eV)
   238     238       --         0.227 au  C             1.00      2 P:y            13
                        (       6.179 eV)
   239     239       --         2.145 au  C             1.00      3 P:y            13
                        (      58.365 eV)
   240     240      0.667      -0.173 au  C             1.00      1 P:z            13
                        (      -4.721 eV)
   241     241       --         0.227 au  C             1.00      2 P:z            13
                        (       6.179 eV)
   242     242       --         2.145 au  C             1.00      3 P:z            13
                        (      58.365 eV)
   243     243       --         1.327 au  C             1.00      1 D:z2           13
                        (      36.114 eV)
   244     244       --         1.327 au  C             1.00      1 D:x2-y2        13
                        (      36.114 eV)
   245     245       --         1.327 au  C             1.00      1 D:xy           13
                        (      36.114 eV)
   246     246       --         1.327 au  C             1.00      1 D:xz           13
                        (      36.114 eV)
   247     247       --         1.327 au  C             1.00      1 D:yz           13
                        (      36.114 eV)
   248     248      2.000     -10.742 au  C             1.00      1 S              14
                        (    -292.309 eV)
   249     249      2.000      -0.647 au  C             1.00      2 S              14
                        (     -17.594 eV)
   250     250       --         0.433 au  C             1.00      3 S              14
                        (      11.771 eV)
   251     251       --         5.557 au  C             1.00      4 S              14
                        (     151.215 eV)
   252     252       --        49.936 au  C             1.00      5 S              14
                        (    1358.837 eV)
   253     253      0.667      -0.173 au  C             1.00      1 P:x            14
                        (      -4.721 eV)
   254     254       --         0.227 au  C             1.00      2 P:x            14
                        (       6.179 eV)
   255     255       --         2.145 au  C             1.00      3 P:x            14
                        (      58.365 eV)
   256     256      0.667      -0.173 au  C             1.00      1 P:y            14
                        (      -4.721 eV)
   257     257       --         0.227 au  C             1.00      2 P:y            14
                        (       6.179 eV)
   258     258       --         2.145 au  C             1.00      3 P:y            14
                        (      58.365 eV)
   259     259      0.667      -0.173 au  C             1.00      1 P:z            14
                        (      -4.721 eV)
   260     260       --         0.227 au  C             1.00      2 P:z            14
                        (       6.179 eV)
   261     261       --         2.145 au  C             1.00      3 P:z            14
                        (      58.365 eV)
   262     262       --         1.327 au  C             1.00      1 D:z2           14
                        (      36.114 eV)
   263     263       --         1.327 au  C             1.00      1 D:x2-y2        14
                        (      36.114 eV)
   264     264       --         1.327 au  C             1.00      1 D:xy           14
                        (      36.114 eV)
   265     265       --         1.327 au  C             1.00      1 D:xz           14
                        (      36.114 eV)
   266     266       --         1.327 au  C             1.00      1 D:yz           14
                        (      36.114 eV)
   267     267      1.000      -0.241 au  H             1.00      1 S              15
                        (      -6.547 eV)
   268     268       --         0.133 au  H             1.00      2 S              15
                        (       3.632 eV)
   269     269       --         1.528 au  H             1.00      3 S              15
                        (      41.584 eV)
   270     270       --         0.464 au  H             1.00      1 P:x            15
                        (      12.638 eV)
   271     271       --         0.464 au  H             1.00      1 P:y            15
                        (      12.638 eV)
   272     272       --         0.464 au  H             1.00      1 P:z            15
                        (      12.638 eV)
   273     273      1.000      -0.241 au  H             1.00      1 S              16
                        (      -6.547 eV)
   274     274       --         0.133 au  H             1.00      2 S              16
                        (       3.632 eV)
   275     275       --         1.528 au  H             1.00      3 S              16
                        (      41.584 eV)
   276     276       --         0.464 au  H             1.00      1 P:x            16
                        (      12.638 eV)
   277     277       --         0.464 au  H             1.00      1 P:y            16
                        (      12.638 eV)
   278     278       --         0.464 au  H             1.00      1 P:z            16
                        (      12.638 eV)
   279     279      1.000      -0.241 au  H             1.00      1 S              17
                        (      -6.547 eV)
   280     280       --         0.133 au  H             1.00      2 S              17
                        (       3.632 eV)
   281     281       --         1.528 au  H             1.00      3 S              17
                        (      41.584 eV)
   282     282       --         0.464 au  H             1.00      1 P:x            17
                        (      12.638 eV)
   283     283       --         0.464 au  H             1.00      1 P:y            17
                        (      12.638 eV)
   284     284       --         0.464 au  H             1.00      1 P:z            17
                        (      12.638 eV)
   285     285      1.000      -0.241 au  H             1.00      1 S              18
                        (      -6.547 eV)
   286     286       --         0.133 au  H             1.00      2 S              18
                        (       3.632 eV)
   287     287       --         1.528 au  H             1.00      3 S              18
                        (      41.584 eV)
   288     288       --         0.464 au  H             1.00      1 P:x            18
                        (      12.638 eV)
   289     289       --         0.464 au  H             1.00      1 P:y            18
                        (      12.638 eV)
   290     290       --         0.464 au  H             1.00      1 P:z            18
                        (      12.638 eV)
   291     291      1.000      -0.241 au  H             1.00      1 S              19
                        (      -6.547 eV)
   292     292       --         0.133 au  H             1.00      2 S              19
                        (       3.632 eV)
   293     293       --         1.528 au  H             1.00      3 S              19
                        (      41.584 eV)
   294     294       --         0.464 au  H             1.00      1 P:x            19
                        (      12.638 eV)
   295     295       --         0.464 au  H             1.00      1 P:y            19
                        (      12.638 eV)
   296     296       --         0.464 au  H             1.00      1 P:z            19
                        (      12.638 eV)
   297     297      1.000      -0.241 au  H             1.00      1 S              20
                        (      -6.547 eV)
   298     298       --         0.133 au  H             1.00      2 S              20
                        (       3.632 eV)
   299     299       --         1.528 au  H             1.00      3 S              20
                        (      41.584 eV)
   300     300       --         0.464 au  H             1.00      1 P:x            20
                        (      12.638 eV)
   301     301       --         0.464 au  H             1.00      1 P:y            20
                        (      12.638 eV)
   302     302       --         0.464 au  H             1.00      1 P:z            20
                        (      12.638 eV)
   303     303      1.000      -0.241 au  H             1.00      1 S              21
                        (      -6.547 eV)
   304     304       --         0.133 au  H             1.00      2 S              21
                        (       3.632 eV)
   305     305       --         1.528 au  H             1.00      3 S              21
                        (      41.584 eV)
   306     306       --         0.464 au  H             1.00      1 P:x            21
                        (      12.638 eV)
   307     307       --         0.464 au  H             1.00      1 P:y            21
                        (      12.638 eV)
   308     308       --         0.464 au  H             1.00      1 P:z            21
                        (      12.638 eV)
   309     309      1.000      -0.241 au  H             1.00      1 S              22
                        (      -6.547 eV)
   310     310       --         0.133 au  H             1.00      2 S              22
                        (       3.632 eV)
   311     311       --         1.528 au  H             1.00      3 S              22
                        (      41.584 eV)
   312     312       --         0.464 au  H             1.00      1 P:x            22
                        (      12.638 eV)
   313     313       --         0.464 au  H             1.00      1 P:y            22
                        (      12.638 eV)
   314     314       --         0.464 au  H             1.00      1 P:z            22
                        (      12.638 eV)
   315     315      1.000      -0.241 au  H             1.00      1 S              23
                        (      -6.547 eV)
   316     316       --         0.133 au  H             1.00      2 S              23
                        (       3.632 eV)
   317     317       --         1.528 au  H             1.00      3 S              23
                        (      41.584 eV)
   318     318       --         0.464 au  H             1.00      1 P:x            23
                        (      12.638 eV)
   319     319       --         0.464 au  H             1.00      1 P:y            23
                        (      12.638 eV)
   320     320       --         0.464 au  H             1.00      1 P:z            23
                        (      12.638 eV)
   321     321      1.000      -0.241 au  H             1.00      1 S              24
                        (      -6.547 eV)
   322     322       --         0.133 au  H             1.00      2 S              24
                        (       3.632 eV)
   323     323       --         1.528 au  H             1.00      3 S              24
                        (      41.584 eV)
   324     324       --         0.464 au  H             1.00      1 P:x            24
                        (      12.638 eV)
   325     325       --         0.464 au  H             1.00      1 P:y            24
                        (      12.638 eV)
   326     326       --         0.464 au  H             1.00      1 P:z            24
                        (      12.638 eV)
   327     327      2.000     -19.844 au  O             1.00      1 S              25
                        (    -539.986 eV)
   328     328      2.000      -1.099 au  O             1.00      2 S              25
                        (     -29.918 eV)
   329     329       --         0.891 au  O             1.00      3 S              25
                        (      24.243 eV)
   330     330       --        13.825 au  O             1.00      4 S              25
                        (     376.193 eV)
   331     331       --       121.419 au  O             1.00      5 S              25
                        (    3303.974 eV)
   332     332      1.333      -0.395 au  O             1.00      1 P:x            25
                        (     -10.736 eV)
   333     333       --         0.433 au  O             1.00      2 P:x            25
                        (      11.795 eV)
   334     334       --         4.053 au  O             1.00      3 P:x            25
                        (     110.279 eV)
   335     335      1.333      -0.395 au  O             1.00      1 P:y            25
                        (     -10.736 eV)
   336     336       --         0.433 au  O             1.00      2 P:y            25
                        (      11.795 eV)
   337     337       --         4.053 au  O             1.00      3 P:y            25
                        (     110.279 eV)
   338     338      1.333      -0.395 au  O             1.00      1 P:z            25
                        (     -10.736 eV)
   339     339       --         0.433 au  O             1.00      2 P:z            25
                        (      11.795 eV)
   340     340       --         4.053 au  O             1.00      3 P:z            25
                        (     110.279 eV)
   341     341       --         1.172 au  O             1.00      1 D:z2           25
                        (      31.880 eV)
   342     342       --         1.172 au  O             1.00      1 D:x2-y2        25
                        (      31.880 eV)
   343     343       --         1.172 au  O             1.00      1 D:xy           25
                        (      31.880 eV)
   344     344       --         1.172 au  O             1.00      1 D:xz           25
                        (      31.880 eV)
   345     345       --         1.172 au  O             1.00      1 D:yz           25
                        (      31.880 eV)
   346     346      2.000     -19.844 au  O             1.00      1 S              26
                        (    -539.986 eV)
   347     347      2.000      -1.099 au  O             1.00      2 S              26
                        (     -29.918 eV)
   348     348       --         0.891 au  O             1.00      3 S              26
                        (      24.243 eV)
   349     349       --        13.825 au  O             1.00      4 S              26
                        (     376.193 eV)
   350     350       --       121.419 au  O             1.00      5 S              26
                        (    3303.974 eV)
   351     351      1.333      -0.395 au  O             1.00      1 P:x            26
                        (     -10.736 eV)
   352     352       --         0.433 au  O             1.00      2 P:x            26
                        (      11.795 eV)
   353     353       --         4.053 au  O             1.00      3 P:x            26
                        (     110.279 eV)
   354     354      1.333      -0.395 au  O             1.00      1 P:y            26
                        (     -10.736 eV)
   355     355       --         0.433 au  O             1.00      2 P:y            26
                        (      11.795 eV)
   356     356       --         4.053 au  O             1.00      3 P:y            26
                        (     110.279 eV)
   357     357      1.333      -0.395 au  O             1.00      1 P:z            26
                        (     -10.736 eV)
   358     358       --         0.433 au  O             1.00      2 P:z            26
                        (      11.795 eV)
   359     359       --         4.053 au  O             1.00      3 P:z            26
                        (     110.279 eV)
   360     360       --         1.172 au  O             1.00      1 D:z2           26
                        (      31.880 eV)
   361     361       --         1.172 au  O             1.00      1 D:x2-y2        26
                        (      31.880 eV)
   362     362       --         1.172 au  O             1.00      1 D:xy           26
                        (      31.880 eV)
   363     363       --         1.172 au  O             1.00      1 D:xz           26
                        (      31.880 eV)
   364     364       --         1.172 au  O             1.00      1 D:yz           26
                        (      31.880 eV)



 ================================
 (Slater-type)  F U N C T I O N S  ***  (Basis and Fit)  ***
 ================================
  

 Atom Type    1  (C)
 ==============

 Valence Basis Sets:   9
 -----------------------
   1 S    7.680000
   1 S    5.000000
   2 S    1.280000
   2 S    2.100000
   2 S    4.600000
   2 P    0.820000
   2 P    1.480000
   2 P    2.940000
   3 D    2.200000

 Charge Fitting Sets (for the computation of the Coulomb Potential):  22
 -----------------------------------------------------------------------
   1 S   15.360000
   2 S   17.530000
   2 S   12.070000
   2 S    8.310000
   2 S    5.730000
   3 S    5.780000
   3 S    4.220000
   3 S    3.080000
   3 S    2.250000
   3 S    1.640000
   2 P    9.880000
   2 P    5.800000
   3 P    5.050000
   3 P    3.230000
   3 P    2.060000
   3 D    7.200000
   3 D    4.400000
   3 D    2.690000
   3 D    1.640000
   4 F    5.400000
   4 F    3.550000
   5 G    4.500000

 Atom Type    2  (H)
 ==============

 Valence Basis Sets:   4
 -----------------------
   1 S    0.690000
   1 S    0.920000
   1 S    1.580000
   2 P    1.250000

 Charge Fitting Sets (for the computation of the Coulomb Potential):  11
 -----------------------------------------------------------------------
   1 S    3.160000
   1 S    2.090000
   1 S    1.380000
   2 S    1.500000
   2 P    4.000000
   2 P    2.650000
   2 P    1.750000
   3 D    4.000000
   3 D    2.500000
   4 F    3.000000
   5 G    4.000000

 Atom Type    3  (O)
 ==============

 Valence Basis Sets:   9
 -----------------------
   1 S    9.800000
   1 S    6.800000
   2 S    7.580000
   2 S    2.880000
   2 S    1.720000
   2 P    4.080000
   2 P    2.080000
   2 P    1.120000
   3 D    2.000000

 Charge Fitting Sets (for the computation of the Coulomb Potential):  22
 -----------------------------------------------------------------------
   1 S   19.600000
   2 S   22.600000
   2 S   15.680000
   2 S   10.890000
   2 S    7.560000
   3 S    7.690000
   3 S    5.650000
   3 S    4.150000
   3 S    3.050000
   3 S    2.240000
   2 P   12.860000
   2 P    7.680000
   3 P    6.780000
   3 P    4.390000
   3 P    2.840000
   3 D    8.800000
   3 D    5.580000
   3 D    3.530000
   3 D    2.240000
   4 F    6.200000
   4 F    3.700000
   5 G    4.500000


 BAS: List of all Elementary Cartesian Basis Functions
 =====================================================

 The numbering in the list below (to the right of the function characteristics) is referred
 to in print-outs of MO eigenvectors and Mulliken populations in the BAS representation
 (as contrasted to the SFO representation).

 Notes:
 1. The functions are characterized by a polynomial prefactor (powers of x,y,z and r) and
    an exponential decay factor alpha.
 2. Since the basis sets are specific for an atom TYPE, the individual functions occur on
    all atoms of that type.
 3. The word 'Core' in the left margin signals that it is a Core Function (CF) : not a
    degree of freedom in the valence set, but only used to ensure orthogonalization of
    the other valence basis functions on the frozen Core Orbitals.


 (power of) X  Y  Z  R     Alpha  on Atom
            ==========     =====     ==========

 C                                    1    2    3    4    5    6    7    8    9   10   11   12   13   14
                                  ---------------------------------------------------------------------------
            0  0  0  0     7.680      1   21   41   61   81  101  121  141  161  181  201  221  241  261
            0  0  0  0     5.000      2   22   42   62   82  102  122  142  162  182  202  222  242  262
            0  0  0  1     1.280      3   23   43   63   83  103  123  143  163  183  203  223  243  263
            0  0  0  1     2.100      4   24   44   64   84  104  124  144  164  184  204  224  244  264
            0  0  0  1     4.600      5   25   45   65   85  105  125  145  165  185  205  225  245  265
            1  0  0  0     0.820      6   26   46   66   86  106  126  146  166  186  206  226  246  266
            0  1  0  0     0.820      7   27   47   67   87  107  127  147  167  187  207  227  247  267
            0  0  1  0     0.820      8   28   48   68   88  108  128  148  168  188  208  228  248  268
            1  0  0  0     1.480      9   29   49   69   89  109  129  149  169  189  209  229  249  269
            0  1  0  0     1.480     10   30   50   70   90  110  130  150  170  190  210  230  250  270
            0  0  1  0     1.480     11   31   51   71   91  111  131  151  171  191  211  231  251  271
            1  0  0  0     2.940     12   32   52   72   92  112  132  152  172  192  212  232  252  272
            0  1  0  0     2.940     13   33   53   73   93  113  133  153  173  193  213  233  253  273
            0  0  1  0     2.940     14   34   54   74   94  114  134  154  174  194  214  234  254  274
            2  0  0  0     2.200     15   35   55   75   95  115  135  155  175  195  215  235  255  275
            1  1  0  0     2.200     16   36   56   76   96  116  136  156  176  196  216  236  256  276
            1  0  1  0     2.200     17   37   57   77   97  117  137  157  177  197  217  237  257  277
            0  2  0  0     2.200     18   38   58   78   98  118  138  158  178  198  218  238  258  278
            0  1  1  0     2.200     19   39   59   79   99  119  139  159  179  199  219  239  259  279
            0  0  2  0     2.200     20   40   60   80  100  120  140  160  180  200  220  240  260  280

 H                                   15   16   17   18   19   20   21   22   23   24
                                  ---------------------------------------------------------------------------
            0  0  0  0     0.690    281  287  293  299  305  311  317  323  329  335
            0  0  0  0     0.920    282  288  294  300  306  312  318  324  330  336
            0  0  0  0     1.580    283  289  295  301  307  313  319  325  331  337
            1  0  0  0     1.250    284  290  296  302  308  314  320  326  332  338
            0  1  0  0     1.250    285  291  297  303  309  315  321  327  333  339
            0  0  1  0     1.250    286  292  298  304  310  316  322  328  334  340

 O                                   25   26
                                  ---------------------------------------------------------------------------
            0  0  0  0     9.800    341  361
            0  0  0  0     6.800    342  362
            0  0  0  1     7.580    343  363
            0  0  0  1     2.880    344  364
            0  0  0  1     1.720    345  365
            1  0  0  0     4.080    346  366
            0  1  0  0     4.080    347  367
            0  0  1  0     4.080    348  368
            1  0  0  0     2.080    349  369
            0  1  0  0     2.080    350  370
            0  0  1  0     2.080    351  371
            1  0  0  0     1.120    352  372
            0  1  0  0     1.120    353  373
            0  0  1  0     1.120    354  374
            2  0  0  0     2.000    355  375
            1  1  0  0     2.000    356  376
            1  0  1  0     2.000    357  377
            0  2  0  0     2.000    358  378
            0  1  1  0     2.000    359  379
            0  0  2  0     2.000    360  380

 Total number of charge fitting functions (nprimf)      1844
 Total number of Cartesian basis functions (naos)        380
 Total number of Cartesian core functions  (ncos)          0

1
 ***************************************************************************************************



                                              ***********************
                                              *  T E C H N I C A L  *
                                              ***********************
  



 =============================================================
 P A R A L L E L I Z A T I O N  and  V E C T O R I Z A T I O N
 =============================================================
  
 Nr of parallel processes:                               24
 Maximum vector length in NumInt loops:                 128



 =====================
 S C F   U P D A T E S
 =====================
  
 Max. nr. of cycles:                               300
 Convergence criterion:                              0.0000010000
   secondary criterion:                              0.0010000000

 Mix parameter (when DIIS does not apply):           0.2000000000
 Mixed ADIIS+SDIIS will be used                  
    Max number of expansion vectors:                10
    Pure ADIIS when Max([F,P]) is above              0.1000000000
    Pure SDIIS when Max([F,P]) is below              0.0010000000
 Automatic ElectronSmearing (in case of problematic SCF convergence) disabled



 =================
 P R E C I S I O N  ***  (General: NumInt, NeglectFunctionTails, ...)  ***
 =================
  

 NumInt:           Target precision:                 4.0000000000
 -------           Initial precision:                4.0000000000
                   Min. precision (optimization):    4.0000000000

 Neglect Functions:          Basis functions:        0.1000000000E-05
 ------------------          Fit functions:          0.1000000000E-05



 ===========================
 L I N E A R   S C A L I N G
 ===========================
  

 Cut-off radii density fit:                        0.1000000000E-07
 Overlap cut-off criterion AO matrix elements:     0.1000000000E-05
 Cut-offs for Coulomb potential and fitted density:0.1000000000E-07
 Cut-off criterion for Coulomb multipole terms:    0.1000000000E-07
 Progressive Convergence parameter:                 0.000000000    
1
 ***************************************************************************************************



                                            ***************************
                                            *  C O M P U T A T I O N  *
                                            ***************************
  

 Number of elements of the density matrix on this node (used, total):      3023     72390
 Numerically sensitive XC: Boost radial integration grid.
 Radial integration boost factor:   3.00000000000000     



 ===========================================
 Numerical Integration : Fuzzy Cells (Becke)
 ===========================================
  
 Becke grid quality: NORMAL         
  
 Lebedev angular grid order:             min:  11 max:  23
 Nr. of radial points:                   min: 138 max: 157

 Total nr. of points:     494240
 Nr. of blocks:             3862
 Block length:               128
 Nr. of dummy points:         96


 Test of Precision of the Numerical Integration Grid
 ===================================================

 Integral of the Total Core Density:                   0.00000000000000



 ========================
 Density Fitting (zlmFit)
 ========================
  
 ZlmFit Fit Quality: NORMAL         
  
 Max L-expansion:                        min:   5 max:   6
 Nr. of radial interpolation points:     min:  36 max:  54



 ======================
 RI Hartree-Fock Scheme
 ======================
  
 Fit Set Quality     : NORMAL
 Threshold Quality   : NORMAL
 Integration Quality : NORMAL
 Response Quality    : DEFAULT
 Is Range Separated  :  F
 
 RIHartreeFock Dependency: number of modified vectors:          21



 =====
 S C F  ***  ScaSCF  ***
 =====
  
 Initial density matrix is calculated as sum of fragments

 CYCLE    1
 SCF Error: norm([F,P])=     10.887250817510, max([F,P])=      1.547500199382
 orbitals (Q,E):
 ---------------
 A :46...65          ( 2.00    -0.5405)  ( 2.00    -0.5394)  ( 2.00    -0.5279)  ( 2.00    -0.4995)
                     ( 2.00    -0.4891)  ( 2.00    -0.4442)  ( 2.00    -0.4417)  ( 2.00    -0.4316)
                     ( 2.00    -0.4221)  ( 2.00    -0.4207)  ( 0.00    -0.2512)  ( 0.00    -0.2005)
                     ( 0.00    -0.1918)  ( 0.00    -0.1852)  ( 0.00    -0.1097)  ( 0.00    -0.0596)
                     ( 0.00    -0.0475)  ( 0.00    -0.0404)  ( 0.00    -0.0259)  ( 0.00    -0.0238)

 CYCLE    2
   MIX coefficients:  0.8000  0.2000
 SCF Error: norm([F,P])=      1.201062434559, max([F,P])=      0.209439692112
 orbitals (Q,E):
 ---------------
 A :46...56          ( 2.00    -0.5031)  ( 2.00    -0.4978)  ( 2.00    -0.4907)  ( 2.00    -0.4639)
                     ( 2.00    -0.4477)  ( 2.00    -0.3999)  ( 2.00    -0.3980)  ( 2.00    -0.3915)
                     ( 2.00    -0.3843)  ( 2.00    -0.3833)  ( 0.00    -0.1967)

 CYCLE    3
  SDIIS (wt  0.000): -1.3137  2.3137
 A-DIIS (wt  1.000):  0.0000  1.0000
  DIIS coefficients:  0.0000  1.0000
 SCF Error: norm([F,P])=      0.740473424176, max([F,P])=      0.118964328040
 orbitals (Q,E):
 ---------------
 A :46...56          ( 2.00    -0.3733)  ( 2.00    -0.3731)  ( 2.00    -0.3680)  ( 2.00    -0.3450)
                     ( 2.00    -0.3201)  ( 2.00    -0.2699)  ( 2.00    -0.2667)  ( 2.00    -0.2652)
                     ( 2.00    -0.2616)  ( 2.00    -0.2529)  ( 0.00    -0.0067)

 CYCLE    4
  SDIIS (wt  0.000):  1.1203 -1.0668  0.9465
 A-DIIS (wt  1.000):  0.0000  0.3316  0.6684
  DIIS coefficients:  0.0000  0.3316  0.6684
 SCF Error: norm([F,P])=      0.648443364855, max([F,P])=      0.135483466706
 orbitals (Q,E):
 ---------------
 A :46...56          ( 2.00    -0.4478)  ( 2.00    -0.4456)  ( 2.00    -0.4372)  ( 2.00    -0.4105)
                     ( 2.00    -0.3990)  ( 2.00    -0.3511)  ( 2.00    -0.3395)  ( 2.00    -0.3345)
                     ( 2.00    -0.3279)  ( 2.00    -0.3271)  ( 0.00    -0.0601)

 CYCLE    5
  SDIIS (wt  0.000): -0.5769  0.8174  0.0991  0.6604
 A-DIIS (wt  1.000):  0.0000  0.0000  0.1429  0.8571
  DIIS coefficients:  0.0000  0.0000  0.1429  0.8571
 SCF Error: norm([F,P])=      0.327812039698, max([F,P])=      0.106546662135
 orbitals (Q,E):
 ---------------
 A :46...56          ( 2.00    -0.4311)  ( 2.00    -0.4302)  ( 2.00    -0.4291)  ( 2.00    -0.4068)
                     ( 2.00    -0.3822)  ( 2.00    -0.3294)  ( 2.00    -0.3288)  ( 2.00    -0.3266)
                     ( 2.00    -0.3212)  ( 2.00    -0.3207)  ( 0.00    -0.0575)
[...]
                                   -2.96%     2 P:z             6.179  0.00     2 C
                                   -2.95%     2 P:z             6.179  0.00     6 C
                                   -2.14%     2 P:z             6.179  0.00     1 C
                                   -2.09%     2 P:z             6.179  0.00    12 C
                                    1.93%     1 S              -6.547  1.00    19 H
                                    1.90%     1 S              -6.547  1.00    24 H
                                    1.90%     1 S              -6.547  1.00    21 H
                                    1.73%     2 S               3.632  0.00    22 H
                                    1.68%     2 S               3.632  0.00    18 H
                                   -1.54%     2 P:x             6.179  0.00     6 C
                                   -1.31%     2 P:y             6.179  0.00     5 C
                                   -1.17%     2 P:z            11.795  0.00    25 O
                                   -1.17%     2 P:x             6.179  0.00    14 C
                                   -1.15%     2 P:z             6.179  0.00     7 C
                                   -1.13%     2 P:y             6.179  0.00    13 C
       2.607  0.00    67 A         25.88%     2 S               3.632  0.00    22 H
                                   25.26%     1 S              -6.547  1.00    15 H
                                   24.40%     1 S              -6.547  1.00    22 H
                                   21.91%     2 S               3.632  0.00    15 H
                                   11.85%     2 S               3.632  0.00    17 H
                                  -11.69%     2 P:y             6.179  0.00    11 C
                                   10.88%     1 S              -6.547  1.00    17 H
                                    9.42%     1 S              -6.547  1.00    16 H
                                   -7.54%     2 P:y             6.179  0.00    14 C
                                   -7.34%     2 P:x             6.179  0.00    12 C
                                   -6.84%     2 P:x             6.179  0.00    14 C
                                    6.73%     2 S               3.632  0.00    18 H
                                    6.23%     1 S              -6.547  1.00    20 H
                                    5.64%     2 S               3.632  0.00    16 H
                                    5.40%     1 S              -6.547  1.00    18 H
                                   -5.37%     2 P:y             6.179  0.00     1 C
                                    4.44%     2 S               3.632  0.00    20 H
                                    4.35%     1 S              -6.547  1.00    21 H
                                   -4.20%     2 P:x             6.179  0.00     1 C
                                   -4.00%     2 P:x             6.179  0.00    13 C
                                   -3.68%     2 P:x             6.179  0.00     2 C
                                    2.66%     2 S               3.632  0.00    21 H
                                   -2.63%     3 S              11.771  0.00    14 C
                                   -2.62%     2 P:y             6.179  0.00     2 C
                                   -2.15%     3 S              11.771  0.00    11 C
                                   -2.03%     2 P:x             6.179  0.00    11 C
                                   -1.89%     1 P:x            -4.721  0.67    13 C
                                   -1.68%     2 P:y             6.179  0.00     5 C
                                   -1.42%     1 P:x            -4.721  0.67     1 C
                                    1.41%     3 S              41.584  0.00    15 H
                                   -1.33%     2 P:y             6.179  0.00    13 C
                                   -1.32%     1 P:x            -4.721  0.67    12 C
                                    1.30%     2 P:x             6.179  0.00     7 C
                                   -1.20%     2 P:x            11.795  0.00    26 O
                                    1.12%     3 S              41.584  0.00    16 H
                                   -1.07%     2 P:x             6.179  0.00    10 C
                                   -1.04%     3 S              11.771  0.00     5 C
                                   -1.03%     1 P:x            -4.721  0.67     2 C
                                    1.01%     2 S             -17.594  2.00    11 C
       2.609  0.00    68 A         26.90%     1 S              -6.547  1.00    18 H
                                   25.81%     2 S               3.632  0.00    18 H
                                  -19.36%     2 P:y             6.179  0.00     5 C
                                   15.57%     1 S              -6.547  1.00    17 H
                                  -12.64%     2 P:x             6.179  0.00     6 C
                                   12.60%     1 S              -6.547  1.00    19 H
                                   10.04%     2 S               3.632  0.00    17 H
                                    9.22%     2 S               3.632  0.00    19 H
                                    8.45%     1 S              -6.547  1.00    23 H
                                    8.26%     1 S              -6.547  1.00    21 H
                                    7.94%     1 S              -6.547  1.00    22 H
                                    6.60%     2 S               3.632  0.00    21 H
                                    6.58%     2 S               3.632  0.00    22 H
                                   -6.37%     2 P:y             6.179  0.00     2 C
                                    5.15%     2 S               3.632  0.00    23 H
                                   -4.70%     2 P:x             6.179  0.00    14 C
                                   -4.19%     2 P:y             6.179  0.00    13 C
                                    3.30%     1 S              -6.547  1.00    20 H
                                   -3.27%     1 P:y            -4.721  0.67     5 C
                                    2.99%     1 S              -6.547  1.00    24 H
                                   -2.97%     2 P:y             6.179  0.00    14 C
                                    2.86%     2 P:y             6.179  0.00     4 C
                                   -2.67%     2 P:x             6.179  0.00    12 C
                                   -2.36%     2 P:x             6.179  0.00    13 C
                                   -2.15%     2 P:x             6.179  0.00     3 C
                                    1.99%     1 P:z            -4.721  0.67     8 C
                                   -1.84%     2 P:z             6.179  0.00     7 C
                                   -1.76%     3 S              11.771  0.00     5 C
                                   -1.70%     1 P:x            -4.721  0.67     6 C
                                    1.62%     3 S              41.584  0.00    19 H
                                   -1.47%     1 P:x            -4.721  0.67     3 C
                                    1.44%     1 S              -6.547  1.00    15 H
                                   -1.40%     1 P:x            -4.721  0.67    14 C
                                    1.40%     1 P:x            -4.721  0.67     2 C
                                    1.39%     2 S               3.632  0.00    20 H
                                    1.38%     2 P:y             6.179  0.00     7 C
                                   -1.32%     1 P:y            -4.721  0.67     2 C
                                   -1.30%     3 S              11.771  0.00     2 C
                                    1.29%     2 P:y             6.179  0.00     8 C
                                    1.14%     2 P:x             6.179  0.00     9 C
                                    1.10%     2 S             -17.594  2.00     5 C
                                   -1.03%     3 S              24.243  0.00    25 O
       2.939  0.00    69 A         20.82%     1 S              -6.547  1.00    17 H
                                   20.75%     1 S              -6.547  1.00    15 H
                                   19.00%     2 P:y             6.179  0.00     7 C
                                  -15.07%     2 P:y             6.179  0.00    11 C
                                  -12.21%     2 P:y             6.179  0.00     2 C
                                   10.59%     1 P:y            -4.721  0.67     7 C
                                   10.30%     2 S               3.632  0.00    17 H
                                   10.09%     2 S               3.632  0.00    15 H
                                   -9.66%     2 P:x             6.179  0.00     6 C
                                   -9.33%     2 P:y             6.179  0.00    13 C
                                    9.22%     1 S              -6.547  1.00    16 H
                                    9.21%     1 S              -6.547  1.00    20 H
                                    8.91%     1 S              -6.547  1.00    21 H
                                    8.69%     1 S              -6.547  1.00    19 H
                                    8.41%     2 P:y             6.179  0.00    14 C
                                    8.08%     2 P:x             6.179  0.00     5 C
                                   -7.30%     2 P:x             6.179  0.00    10 C
                                    6.25%     2 P:x             6.179  0.00     7 C
                                   -5.93%     2 P:x             6.179  0.00     2 C
                                    5.82%     2 S               3.632  0.00    20 H
                                    5.77%     2 S               3.632  0.00    16 H
                                   -5.72%     2 P:z            11.795  0.00    26 O
                                   -4.77%     3 S              11.771  0.00     8 C
                                   -4.63%     2 P:y             6.179  0.00     3 C
                                    4.52%     2 P:y             6.179  0.00    10 C
                                   -4.07%     1 P:x            -4.721  0.67    10 C
                                    4.02%     2 P:x             6.179  0.00     9 C
                                    3.83%     2 S               3.632  0.00    21 H
                                    3.78%     2 S               3.632  0.00    19 H
                                    3.51%     1 P:x            -4.721  0.67     7 C
                                   -3.48%     2 P:x             6.179  0.00    12 C
                                    3.46%     1 P:x            -4.721  0.67     5 C
                                    3.32%     2 P:x             6.179  0.00     4 C
                                    3.31%     1 P:y            -4.721  0.67    14 C
                                   -2.99%     2 P:x             6.179  0.00    11 C
                                   -2.83%     3 S              11.771  0.00     9 C
                                   -2.78%     3 S              11.771  0.00     4 C
                                   -2.72%     1 P:y            -4.721  0.67    11 C
                                   -2.66%     1 P:y            -4.721  0.67    13 C
                                   -2.59%     2 S               3.632  0.00    23 H
                                   -2.50%     2 S               3.632  0.00    24 H
                                    2.46%     1 P:x            -4.721  0.67     9 C
                                   -2.08%     1 P:y            -4.721  0.67     3 C
                                   -1.95%     2 P:y             6.179  0.00     1 C
                                    1.88%     2 P:x             6.179  0.00     3 C
                                    1.86%     1 P:x            -4.721  0.67     4 C
                                    1.77%     1 P:y            -4.721  0.67    10 C
                                   -1.75%     2 P:x             6.179  0.00     1 C
                                   -1.73%     1 P:x            -4.721  0.67     6 C
                                    1.62%     2 P:y             6.179  0.00     4 C
                                   -1.60%     1 S              -6.547  1.00    23 H
                                   -1.56%     1 P:y            -4.721  0.67     2 C
                                    1.43%     3 S              41.584  0.00    15 H
                                    1.43%     3 S              41.584  0.00    17 H
                                    1.41%     1 P:z           -10.736  1.33    26 O
                                    1.37%     2 S               3.632  0.00    22 H
                                   -1.36%     1 P:x            -4.721  0.67     2 C
                                   -1.33%     2 S             -17.594  2.00     8 C
                                    1.32%     3 S              41.584  0.00    16 H
                                    1.32%     3 S              41.584  0.00    20 H
                                    1.28%     2 P:z             6.179  0.00     7 C
                                    1.22%     2 S               3.632  0.00    18 H
                                    1.11%     1 P:z            -4.721  0.67     8 C
                                    1.05%     1 P:y            -4.721  0.67     4 C
                                   -1.04%     2 P:x             6.179  0.00    14 C
       3.423  0.00    70 A         22.29%     1 S              -6.547  1.00    18 H
                                   22.10%     1 S              -6.547  1.00    22 H
                                   17.39%     1 S              -6.547  1.00    19 H
                                   17.16%     1 S              -6.547  1.00    21 H
                                   14.13%     2 S               3.632  0.00    18 H
                                  -14.12%     2 P:x             6.179  0.00     6 C
                                   13.99%     2 S               3.632  0.00    22 H
                                   13.24%     1 S              -6.547  1.00    16 H
                                  -13.14%     2 P:y             6.179  0.00     5 C
                                   13.10%     1 S              -6.547  1.00    20 H
                                   11.49%     1 S              -6.547  1.00    17 H
                                   11.32%     1 S              -6.547  1.00    15 H
                                   -8.69%     2 P:y             6.179  0.00    14 C
                                   -8.37%     2 P:x             6.179  0.00    12 C
                                   -8.31%     2 P:y             6.179  0.00    13 C
                                   -7.46%     2 P:y             6.179  0.00    11 C
                                   -6.27%     2 P:y             6.179  0.00     1 C
                                   -5.93%     2 P:x             6.179  0.00    14 C
                                   -5.57%     2 P:x             6.179  0.00    13 C
                                    5.49%     2 S               3.632  0.00    19 H
                                    5.38%     2 S               3.632  0.00    21 H
                                   -5.17%     2 P:y             6.179  0.00     2 C
                                    4.86%     2 S               3.632  0.00    16 H
                                    4.80%     2 S               3.632  0.00    20 H
                                    4.70%     2 S               3.632  0.00    17 H
                                    4.59%     2 S               3.632  0.00    15 H
                                   -3.21%     2 P:x             6.179  0.00     2 C
                                    2.49%     3 S              41.584  0.00    19 H
                                    2.46%     3 S              41.584  0.00    21 H
                                   -2.17%     2 P:x             6.179  0.00     1 C
                                    1.74%     3 S              41.584  0.00    16 H
                                   -1.72%     2 P:x             6.179  0.00     4 C
                                    1.72%     3 S              41.584  0.00    20 H
                                   -1.65%     1 P:y            -4.721  0.67     5 C
                                   -1.61%     2 P:x             6.179  0.00     5 C
                                    1.52%     2 P:y             6.179  0.00    10 C
                                    1.44%     3 S              41.584  0.00    18 H
                                    1.43%     3 S              41.584  0.00    22 H
                                   -1.41%     1 P:x            -4.721  0.67    14 C
                                    1.35%     2 P:y             6.179  0.00     4 C
                                    1.20%     2 P:x             6.179  0.00     3 C
                                   -1.18%     1 P:x            -4.721  0.67     6 C
                                   -1.17%     1 P:y            -4.721  0.67    11 C
                                    1.09%     1 P:x            -4.721  0.67    11 C
                                    1.03%     1 P:x            -4.721  0.67     5 C
                                   -1.03%     2 P:x            11.795  0.00    25 O



 =======================================================================
 Electrostatic potential at the Nuclei due to electrons and other nuclei
 =======================================================================
  
         Atom                  Potential
         ----                  ---------
     1)   C                  14.75595321
     2)   C                  14.76084844
     3)   C                  14.74456323
     4)   C                  14.75296553
     5)   C                  14.76081963
     6)   C                  14.76100633
     7)   C                  14.68731607
     8)   C                  14.67919490
     9)   C                  14.75286267
    10)   C                  14.74427476
    11)   C                  14.76063720
    12)   H                   1.08976668
    13)   C                  14.75608749
    14)   C                  14.76047563
    15)   C                  14.76063037
    16)   H                   1.08705059
    17)   H                   1.08984403
    18)   H                   1.09435190
    19)   H                   1.08997357
    20)   H                   1.08710984
    21)   H                   1.08958026
    22)   H                   1.09415271
    23)   O                  22.39773972
    24)   O                  22.36649147
    25)   H                   1.08486417
    26)   H                   0.97539728
 Mulliken charges used for AMS results%charges...


    =====================
     CALCULATION RESULTS
    =====================

Energy (hartree)            -8.81032909


--------------
Atomic charges
--------------
  Index   Atom    Charge
      1      C    0.1587
      2      C    0.1430
      3      C    0.0684
      4      C   -0.0484
      5      C    0.1521
      6      C    0.1278
      7      C    0.2283
      8      C    0.4815
      9      C   -0.0509
     10      C    0.0567
     11      C    0.1498
     12      H   -0.1076
     13      C    0.1581
     14      C    0.1292
     15      C    0.1531
     16      H   -0.1486
     17      H   -0.1059
     18      H   -0.1050
     19      H   -0.1428
     20      H   -0.1470
     21      H   -0.1436
     22      H   -0.1057
     23      O   -0.5387
     24      O   -0.5400
     25      H   -0.0608
     26      H    0.2382


Dipole moment vector    (Debye):     1.02773112   -1.76172183   -0.87022402
              magnitude (Debye):     2.21747264


AMS application finished. Exiting.
NORMAL TERMINATION
     Total cpu time:      74.33
  Total system time:       3.97
 Total elapsed time:      81.01
