

 Parallel Execution: Process Information
 ==============================================================================
 Rank   Node Name                              NodeID   MyNodeRank  NodeMaster
    0   x091.nifl.fysik.dtu.dk                    0          0          0
    1   x091.nifl.fysik.dtu.dk                    1          0          1
    2   x091.nifl.fysik.dtu.dk                    0          1         -1
    3   x091.nifl.fysik.dtu.dk                    1          1         -1
    4   x091.nifl.fysik.dtu.dk                    0          2         -1
    5   x091.nifl.fysik.dtu.dk                    1          2         -1
    6   x091.nifl.fysik.dtu.dk                    0          3         -1
    7   x091.nifl.fysik.dtu.dk                    1          3         -1
    8   x091.nifl.fysik.dtu.dk                    0          4         -1
    9   x091.nifl.fysik.dtu.dk                    1          4         -1
   10   x091.nifl.fysik.dtu.dk                    0          5         -1
   11   x091.nifl.fysik.dtu.dk                    1          5         -1
   12   x091.nifl.fysik.dtu.dk                    0          6         -1
   13   x091.nifl.fysik.dtu.dk                    1          6         -1
   14   x091.nifl.fysik.dtu.dk                    0          7         -1
   15   x091.nifl.fysik.dtu.dk                    1          7         -1
   16   x091.nifl.fysik.dtu.dk                    0          8         -1
   17   x091.nifl.fysik.dtu.dk                    1          8         -1
   18   x091.nifl.fysik.dtu.dk                    0          9         -1
   19   x091.nifl.fysik.dtu.dk                    1          9         -1
   20   x091.nifl.fysik.dtu.dk                    0         10         -1
   21   x091.nifl.fysik.dtu.dk                    1         10         -1
   22   x091.nifl.fysik.dtu.dk                    0         11         -1
   23   x091.nifl.fysik.dtu.dk                    1         11         -1
 ==============================================================================


May use up to 61217MB of RAM as shared memory on node 0
May use up to 61514MB of RAM as shared memory on node 1

 *******************************************************************************
 *                                                                             *
 *  --------------------------------                                           *
 *   Amsterdam Modeling Suite (AMS)              2022.102                      *
 *  --------------------------------                                           *
 *                                               r103598 2022-04-22            *
 *                                                                             *
 *                                                                             *
 *                              =================                              *
 *                              |               |                              *
 *                              |     A M S     |                              *
 *                              |               |                              *
 *                              =================                              *
 *                                                                             *
 *                                                                             *
 *   Online information and documentation:  https://www.scm.com/support/       *
 *   E-mail:  support@scm.com   info@scm.com                                   *
 *                                                                             *
 *   Scientific publications using AMS results must be properly referenced     *
 *   See the User Manuals (or the web site) for recommended citations          *
 *   The terms and conditions of the End User License Agreement apply to       *
 *   the use of AMS, https://www.scm.com/license-terms/                        *
 *                                                                             *
 **********************  x86_64_linux_intel / intelmpi  ************************
 
 Licensed to: Prof. Tejs Vegge / Technical University of Denmark / DENMARK 2022-04-05 11:47:23
 SCM User ID: u18925
  
 AMS 2022.102  RunTime: Nov02-2022 10:40:29  ShM Nodes: 2  Procs: 24

 AMS jobname: water_reactivity_analysis
 AMS jobid  : 1775771414

 Start   directory: /home/scratch3/xiaozan/auto_reaction_search/plams_workdir/water_reactivity_analysis/
 Results directory: /home/scratch3/xiaozan/auto_reaction_search/plams_workdir/water_reactivity_analysis/
 Scratch directory: /scratch/xiaozan/amstmp_water_reactivity_analysis_kid0.1775771414/


 Communication costs MPI_COMM_WORLD:      4.195 usec per message,   0.0186 usec per 8-byte item
 Communication costs for intra-node:      2.226 usec per message,   0.0297 usec per 8-byte item

 RNG seed: 1757747785 -1176062081 397512677 817392250 -791673962 1824686505 1239775632 952968162



                     *************************************************************************
                     *  ADF 2022.102  RunTime: Nov02-2022 10:40:30  ShM Nodes: 2  Procs: 24  *
                     *************************************************************************
  
       ****************************
       * SINGLE POINT CALCULATION *
       ****************************
 
--------
Geometry
--------
Formula: H2O
Atoms
  Index Symbol   x (angstrom)   y (angstrom)   z (angstrom)
      1      O    -0.04882775    -1.66835185    -1.06439275
      2      H    -0.56639710    -1.43287093    -1.84768880
      3      H    -0.10602019    -2.64266566    -0.89384102
 
Total System Charge             0.00000
 
 
----------------
ADF Engine Input
----------------
 
 Basis
 Core None
 Type TZP
 End
 ConceptualDFT
 AnalysisLevel Full
 Enabled Yes
 End
 QTAIM
 AnalysisLevel Full
 Enabled Yes
 End
 XC
 MetaHybrid M06-2X
 End
 

 Title: *** (NO TITLE) ***

 *** adf ***



 ===========================
 A T T A C H E D   F I L E S
 ===========================
  



 ===============================
 M O D E L   P A R A M E T E R S
 ===============================
  
 DENSITY FUNCTIONAL POTENTIAL (scf)
    Meta-Hybrid:                       M06-2X                                  == Not Default ==

 SPIN  (restricted / unrestr.)
    Molecule:                          Restricted                               
    Fragments:                         Restricted                               

 OTHER ASPECTS
    Relativistic Corrections:          scalar (ZORA,MAPA)                       

    Nuclear Charge Density Model:      Point Charge Nuclei                      
    Core Treatment:                    Frozen Orbital(s)                        

    Hyperfine or Zeeman Interaction:   ---                                      


 Fragment File(s)
 ----------------
 O:
         file : /home/scratch3/xiaozan/auto_reaction_search/plams_workdir/water_reactivity_analysis/t21.15F3A917.O
         jobid: 0
         title: Oxygen (TZP)
 H:
         file : /home/scratch3/xiaozan/auto_reaction_search/plams_workdir/water_reactivity_analysis/t21.8A827CA.H
         jobid: 0
         title: Hydrogen (TZP)



 ===============
 G E O M E T R Y  ***  Planar Molecule  ***
 ===============
  

 ATOMS
 =====                            X Y Z                    CHARGE
                                (Angstrom)             Nucl     +Core       At.Mass
                       --------------------------    ----------------       -------
    1  O              -0.0488   -1.6684   -1.0644      8.00      8.00       15.9949
    2  H              -0.5664   -1.4329   -1.8477      1.00      1.00        1.0078
    3  H              -0.1060   -2.6427   -0.8938      1.00      1.00        1.0078


 FRAGMENTS
 =========                                     Atoms in this Fragment     Cart. coord.s (Angstrom)
                                               -------------------------------------------------------
    1  O                                                 1  O           -0.0488   -1.6684   -1.0644
    2  H                                                 2  H           -0.5664   -1.4329   -1.8477
    3  H                                                 3  H           -0.1060   -2.6427   -0.8938


 Interatomic Distance Matrix (Angstrom)
 --------------------------------------

   1)     0.000
   2)     0.968   0.000
   3)     0.991   1.608   0.000

 Min. Distance =    0.9679
 Max. Distance =    1.6079



 =====================================
 S Y M M E T R Y ,   E L E C T R O N S
 =====================================
  
 Symmetry: NOSYM

 Irreducible Representations, including subspecies
 -------------------------------------------------
 A

 Symmetry is NOT used when fitting density


 Configuration of Valence Electrons
 ==================================
 ( determined in the SCF procedure )

 Total:   10

 Net Charge: 0 (Nuclei minus Electrons)

 Aufbau principle for MO occupations will be applied through SCF cycle no.     150
 Thereafter, the program will assign electrons to MOs that are spatially
 similar to the occupied MOs in a "reference" cycle ("KeepOrbitals").
 The reference cycle is always the PREVIOUS cycle: it will evolve with
 the SCF procedure.
1
 ***************************************************************************************************



                                      ****************************************
                                      *  B U I L D : (Fragments, Functions)  *
                                      ****************************************
  



 =======
 S F O s  ***  (Symmetrized Fragment Orbitals)  ***
 =======
  
 SFOs are linear combinations of (valence) Fragment Orbitals (FOs), such that the SFOs transform as the
 irreducible representations of the (molecular) symmetry group. Each SFO is therefore characterized by
 an irrep of the molecule and by a few (or only one) generating FOs.
 The SFOs constitute a symmetry-adapted basis for the Fock matrix. The MO eigenvector coefficients in
 this basis provide a direct interpretation of the MOs in terms of Frontier Orbital Theory.

 The SFOs are combined with auxiliary Core Functions (CFs) to ensure orthogonalization on the (frozen)
 Core Orbitals (COs). The Core-orthogonalized SFOs (CSFOs) constitute the true Fock basis.

 The FOs, and hence also the (C)SFOs are combinations of the elementary basis functions (BAS). The basis
 functions that participate in the description of the SFOs depend on the irrep. The indices of the
 involved functions are printed below for each irrep.
 (The complete list of primitive basis functions is printed in another section)

 Total nr. of (C)SFOs (summation over all irreps) :    31

 NOTE: a (C)SFO that is defined as a combination of more than one FO is usually NOT normalized.



                                       === A ===
 Nr. of SFOs :   31
 Cartesian basis functions that participate in this irrep (total number =    32) :
      1     2     3     4     5     6     9    12     7    10
     13     8    11    14    15    16    17    18    19    20
     21    22    23    24    25    26    27    28    29    30
     31    32

    SFO  (index         Fragment          Generating    Expansion in Fragment Orbitals
  indx  incl.CFs)   Occup   Orb.Energy   FragmentType  Coeff.   Orbital     on Fragment
 --------------------------------------------------------------------------------------
     1       1      2.000     -19.844 au  O             1.00      1 S               1
                        (    -539.986 eV)
     2       2      2.000      -1.099 au  O             1.00      2 S               1
                        (     -29.918 eV)
     3       3       --         0.891 au  O             1.00      3 S               1
                        (      24.243 eV)
     4       4       --        13.825 au  O             1.00      4 S               1
                        (     376.193 eV)
     5       5       --       121.419 au  O             1.00      5 S               1
                        (    3303.974 eV)
     6       6      1.333      -0.395 au  O             1.00      1 P:x             1
                        (     -10.736 eV)
     7       7       --         0.433 au  O             1.00      2 P:x             1
                        (      11.795 eV)
     8       8       --         4.053 au  O             1.00      3 P:x             1
                        (     110.279 eV)
     9       9      1.333      -0.395 au  O             1.00      1 P:y             1
                        (     -10.736 eV)
    10      10       --         0.433 au  O             1.00      2 P:y             1
                        (      11.795 eV)
    11      11       --         4.053 au  O             1.00      3 P:y             1
                        (     110.279 eV)
    12      12      1.333      -0.395 au  O             1.00      1 P:z             1
                        (     -10.736 eV)
    13      13       --         0.433 au  O             1.00      2 P:z             1
                        (      11.795 eV)
    14      14       --         4.053 au  O             1.00      3 P:z             1
                        (     110.279 eV)
    15      15       --         1.172 au  O             1.00      1 D:z2            1
                        (      31.880 eV)
    16      16       --         1.172 au  O             1.00      1 D:x2-y2         1
                        (      31.880 eV)
    17      17       --         1.172 au  O             1.00      1 D:xy            1
                        (      31.880 eV)
    18      18       --         1.172 au  O             1.00      1 D:xz            1
                        (      31.880 eV)
    19      19       --         1.172 au  O             1.00      1 D:yz            1
                        (      31.880 eV)
    20      20      1.000      -0.241 au  H             1.00      1 S               2
                        (      -6.547 eV)
    21      21       --         0.133 au  H             1.00      2 S               2
                        (       3.632 eV)
    22      22       --         1.528 au  H             1.00      3 S               2
                        (      41.584 eV)
    23      23       --         0.464 au  H             1.00      1 P:x             2
                        (      12.638 eV)
    24      24       --         0.464 au  H             1.00      1 P:y             2
                        (      12.638 eV)
    25      25       --         0.464 au  H             1.00      1 P:z             2
                        (      12.638 eV)
    26      26      1.000      -0.241 au  H             1.00      1 S               3
                        (      -6.547 eV)
    27      27       --         0.133 au  H             1.00      2 S               3
                        (       3.632 eV)
    28      28       --         1.528 au  H             1.00      3 S               3
                        (      41.584 eV)
    29      29       --         0.464 au  H             1.00      1 P:x             3
                        (      12.638 eV)
    30      30       --         0.464 au  H             1.00      1 P:y             3
                        (      12.638 eV)
    31      31       --         0.464 au  H             1.00      1 P:z             3
                        (      12.638 eV)



 ================================
 (Slater-type)  F U N C T I O N S  ***  (Basis and Fit)  ***
 ================================
  

 Atom Type    1  (O)
 ==============

 Valence Basis Sets:   9
 -----------------------
   1 S    9.800000
   1 S    6.800000
   2 S    7.580000
   2 S    2.880000
   2 S    1.720000
   2 P    4.080000
   2 P    2.080000
   2 P    1.120000
   3 D    2.000000

 Charge Fitting Sets (for the computation of the Coulomb Potential):  22
 -----------------------------------------------------------------------
   1 S   19.600000
   2 S   22.600000
   2 S   15.680000
   2 S   10.890000
   2 S    7.560000
   3 S    7.690000
   3 S    5.650000
   3 S    4.150000
   3 S    3.050000
   3 S    2.240000
   2 P   12.860000
   2 P    7.680000
   3 P    6.780000
   3 P    4.390000
   3 P    2.840000
   3 D    8.800000
   3 D    5.580000
   3 D    3.530000
   3 D    2.240000
   4 F    6.200000
   4 F    3.700000
   5 G    4.500000

 Atom Type    2  (H)
 ==============

 Valence Basis Sets:   4
 -----------------------
   1 S    0.690000
   1 S    0.920000
   1 S    1.580000
   2 P    1.250000

 Charge Fitting Sets (for the computation of the Coulomb Potential):  11
 -----------------------------------------------------------------------
   1 S    3.160000
   1 S    2.090000
   1 S    1.380000
   2 S    1.500000
   2 P    4.000000
   2 P    2.650000
   2 P    1.750000
   3 D    4.000000
   3 D    2.500000
   4 F    3.000000
   5 G    4.000000


 BAS: List of all Elementary Cartesian Basis Functions
 =====================================================

 The numbering in the list below (to the right of the function characteristics) is referred
 to in print-outs of MO eigenvectors and Mulliken populations in the BAS representation
 (as contrasted to the SFO representation).

 Notes:
 1. The functions are characterized by a polynomial prefactor (powers of x,y,z and r) and
    an exponential decay factor alpha.
 2. Since the basis sets are specific for an atom TYPE, the individual functions occur on
    all atoms of that type.
 3. The word 'Core' in the left margin signals that it is a Core Function (CF) : not a
    degree of freedom in the valence set, but only used to ensure orthogonalization of
    the other valence basis functions on the frozen Core Orbitals.


 (power of) X  Y  Z  R     Alpha  on Atom
            ==========     =====     ==========

 O                                    1
                                  ---------------------------------------------------------------------------
            0  0  0  0     9.800      1
            0  0  0  0     6.800      2
            0  0  0  1     7.580      3
            0  0  0  1     2.880      4
            0  0  0  1     1.720      5
            1  0  0  0     4.080      6
            0  1  0  0     4.080      7
            0  0  1  0     4.080      8
            1  0  0  0     2.080      9
            0  1  0  0     2.080     10
            0  0  1  0     2.080     11
            1  0  0  0     1.120     12
            0  1  0  0     1.120     13
            0  0  1  0     1.120     14
            2  0  0  0     2.000     15
            1  1  0  0     2.000     16
            1  0  1  0     2.000     17
            0  2  0  0     2.000     18
            0  1  1  0     2.000     19
            0  0  2  0     2.000     20

 H                                    2    3
                                  ---------------------------------------------------------------------------
            0  0  0  0     0.690     21   27
            0  0  0  0     0.920     22   28
            0  0  0  0     1.580     23   29
            1  0  0  0     1.250     24   30
            0  1  0  0     1.250     25   31
            0  0  1  0     1.250     26   32

 Total number of charge fitting functions (nprimf)       184
 Total number of Cartesian basis functions (naos)         32
 Total number of Cartesian core functions  (ncos)          0

1
 ***************************************************************************************************



                                              ***********************
                                              *  T E C H N I C A L  *
                                              ***********************
  



 =============================================================
 P A R A L L E L I Z A T I O N  and  V E C T O R I Z A T I O N
 =============================================================
  
 Nr of parallel processes:                               24
 Maximum vector length in NumInt loops:                 128



 =====================
 S C F   U P D A T E S
 =====================
  
 Max. nr. of cycles:                               300
 Convergence criterion:                              0.0000010000
   secondary criterion:                              0.0010000000

 Mix parameter (when DIIS does not apply):           0.2000000000
 Mixed ADIIS+SDIIS will be used                  
    Max number of expansion vectors:                10
    Pure ADIIS when Max([F,P]) is above              0.1000000000
    Pure SDIIS when Max([F,P]) is below              0.0010000000
 Automatic ElectronSmearing (in case of problematic SCF convergence) disabled



 =================
 P R E C I S I O N  ***  (General: NumInt, NeglectFunctionTails, ...)  ***
 =================
  

 NumInt:           Target precision:                 4.0000000000
 -------           Initial precision:                4.0000000000
                   Min. precision (optimization):    4.0000000000

 Neglect Functions:          Basis functions:        0.1000000000E-05
 ------------------          Fit functions:          0.1000000000E-05



 ===========================
 L I N E A R   S C A L I N G
 ===========================
  

 Cut-off radii density fit:                        0.1000000000E-07
 Overlap cut-off criterion AO matrix elements:     0.1000000000E-05
 Cut-offs for Coulomb potential and fitted density:0.1000000000E-07
 Cut-off criterion for Coulomb multipole terms:    0.1000000000E-07
 Progressive Convergence parameter:                 0.000000000    
1
 ***************************************************************************************************



                                            ***************************
                                            *  C O M P U T A T I O N  *
                                            ***************************
  

 Number of elements of the density matrix on this node (used, total):       210       528
 Numerically sensitive XC: Boost radial integration grid.
 Radial integration boost factor:   3.00000000000000     



 ===========================================
 Numerical Integration : Fuzzy Cells (Becke)
 ===========================================
  
 Becke grid quality: NORMAL         
  
 Lebedev angular grid order:             min:  11 max:  23
 Nr. of radial points:                   min: 138 max: 147

 Total nr. of points:      54245
 Nr. of blocks:              424
 Block length:               128
 Nr. of dummy points:         27


 Test of Precision of the Numerical Integration Grid
 ===================================================

 Integral of the Total Core Density:                   0.00000000000000



 ========================
 Density Fitting (zlmFit)
 ========================
  
 ZlmFit Fit Quality: NORMAL         
  
 Max L-expansion:                        min:   5 max:   6
 Nr. of radial interpolation points:     min:  36 max:  54



 ======================
 RI Hartree-Fock Scheme
 ======================
  
 Fit Set Quality     : NORMAL
 Threshold Quality   : NORMAL
 Integration Quality : NORMAL
 Response Quality    : DEFAULT
 Is Range Separated  :  F
 
 RIHartreeFock Dependency: number of modified vectors:           1



 =====
 S C F  ***  ScaSCF  ***
 =====
  
 Initial density matrix is calculated as sum of fragments

 CYCLE    1
 SCF Error: norm([F,P])=      2.322921358218, max([F,P])=      1.407796406069
 orbitals (Q,E):
 ---------------
 A :1...15           ( 2.00   -19.9708)  ( 2.00    -1.4081)  ( 2.00    -0.7469)  ( 2.00    -0.5921)
                     ( 2.00    -0.5186)  ( 0.00    -0.0551)  ( 0.00     0.0331)  ( 0.00     0.2049)
                     ( 0.00     0.2313)  ( 0.00     0.3182)  ( 0.00     0.3572)  ( 0.00     0.4850)
                     ( 0.00     0.4942)  ( 0.00     0.5358)  ( 0.00     0.6937)

 CYCLE    2
  SDIIS (wt  0.000):  0.0868  0.9132
 A-DIIS (wt  1.000):  0.3706  0.6294
  DIIS coefficients:  0.3706  0.6294
 SCF Error: norm([F,P])=      0.696768745624, max([F,P])=      0.242548517088
 orbitals (Q,E):
 ---------------
 A :1...6            ( 2.00   -19.4781)  ( 2.00    -1.1297)  ( 2.00    -0.5828)  ( 2.00    -0.4081)
                     ( 2.00    -0.3370)  ( 0.00     0.0043)

 CYCLE    3
  SDIIS (wt  0.000): -0.0057  0.3043  0.7014
 A-DIIS (wt  1.000):  0.0000  0.0910  0.9090
  DIIS coefficients:  0.0000  0.0910  0.9090
 SCF Error: norm([F,P])=      0.308510379961, max([F,P])=      0.102111133234
 orbitals (Q,E):
 ---------------
 A :1...6            ( 2.00   -19.7878)  ( 2.00    -1.1781)  ( 2.00    -0.6557)  ( 2.00    -0.5122)
                     ( 2.00    -0.4482)  ( 0.00     0.0108)

 CYCLE    4
  SDIIS (wt  0.222): -0.0929  0.3734  0.7195
 A-DIIS (wt  0.778):  0.0000  0.4073  0.5927
  DIIS coefficients: -0.0206  0.3998  0.6208
 SCF Error: norm([F,P])=      0.247718346119, max([F,P])=      0.078035000699
 orbitals (Q,E):
 ---------------
 A :1...6            ( 2.00   -19.6376)  ( 2.00    -1.1250)  ( 2.00    -0.6129)  ( 2.00    -0.4622)
                     ( 2.00    -0.3957)  ( 0.00     0.0165)

 CYCLE    5
  SDIIS (wt  0.939):  0.0169 -0.0739 -0.0362  1.0932
 A-DIIS (wt  0.061):  0.0000  0.0000  0.0000  1.0000
  DIIS coefficients:  0.0158 -0.0694 -0.0340  1.0876
 SCF Error: norm([F,P])=      0.023179497434, max([F,P])=      0.007022487001
 orbitals (Q,E):
 ---------------
 A :1...6            ( 2.00   -19.6503)  ( 2.00    -1.1297)  ( 2.00    -0.6161)  ( 2.00    -0.4666)
                     ( 2.00    -0.4007)  ( 0.00     0.0162)

 CYCLE    6
  SDIIS (wt  1.000):  0.0014 -0.0073 -0.0191  0.0154  1.0095
  DIIS coefficients:  0.0014 -0.0073 -0.0191  0.0154  1.0095
 SCF Error: norm([F,P])=      0.001887825282, max([F,P])=      0.000681223711
 orbitals (Q,E):
 ---------------
 A :1...6            ( 2.00   -19.6493)  ( 2.00    -1.1293)  ( 2.00    -0.6158)  ( 2.00    -0.4662)
                     ( 2.00    -0.4003)  ( 0.00     0.0162)

 CYCLE    7
  SDIIS (wt  1.000): -0.0003  0.0012  0.0021 -0.0131 -0.0994  1.1094
  DIIS coefficients: -0.0003  0.0012  0.0021 -0.0131 -0.0994  1.1094
 SCF Error: norm([F,P])=      0.000093993113, max([F,P])=      0.000032981549
 orbitals (Q,E):
 ---------------
 A :1...6            ( 2.00   -19.6493)  ( 2.00    -1.1293)  ( 2.00    -0.6158)  ( 2.00    -0.4662)
                     ( 2.00    -0.4003)  ( 0.00     0.0162)

 CYCLE    8
  SDIIS (wt  1.000): -0.0000  0.0001  0.0001 -0.0002 -0.0131  0.0146  0.9985
  DIIS coefficients: -0.0000  0.0001  0.0001 -0.0002 -0.0131  0.0146  0.9985
 SCF Error: norm([F,P])=      0.000013793683, max([F,P])=      0.000005510812
 orbitals (Q,E):
 ---------------
 A :1...6            ( 2.00   -19.6493)  ( 2.00    -1.1293)  ( 2.00    -0.6158)  ( 2.00    -0.4662)
                     ( 2.00    -0.4003)  ( 0.00     0.0162)

 CYCLE    9
  SDIIS (wt  1.000): -0.0000 -0.0000 -0.0000  0.0001  0.0020 -0.0139 -0.0710  1.0829
  DIIS coefficients: -0.0000 -0.0000 -0.0000  0.0001  0.0020 -0.0139 -0.0710  1.0829
 SCF Error: norm([F,P])=      0.000001465569, max([F,P])=      0.000000646646
 orbitals (Q,E):
 ---------------
 A :1...6            ( 2.00   -19.6493)  ( 2.00    -1.1293)  ( 2.00    -0.6158)  ( 2.00    -0.4662)
                     ( 2.00    -0.4003)  ( 0.00     0.0162)

 SCF CONVERGED

 CYCLE   10
1
 ***************************************************************************************************



                                                *******************
                                                *  R E S U L T S  *
                                                *******************
  
  
 Hartree-Fock exchange energy:   -8.90492824059657     
 *** Using EXACT density in Focky
  SDIIS (wt  1.000):  0.0000 -0.0000 -0.0000  0.0000  0.0009 -0.0038 -0.0619  0.2041  0.8607
  DIIS coefficients:  0.0000 -0.0000 -0.0000  0.0000  0.0009 -0.0038 -0.0619  0.2041  0.8607
 SCF Error: norm([F,P])=      0.000000359893, max([F,P])=      0.000000099944

 Scaled ZORA Orbital Energies, per Irrep and Spin:
 =================================================
                        Occup              E (au)              E (eV)       Diff (eV) with prev. cycle
                        -----      --------------------        ------       --------------------------
 A
               1        2.000     -0.19649316950471E+02      -534.685               4.48E-07
               2        2.000     -0.11293419314694E+01       -30.731              -1.90E-07
               3        2.000     -0.61581064896645E+00       -16.757               4.06E-07
               4        2.000     -0.46624518884907E+00       -12.687              -1.21E-08
               5        2.000     -0.40028386133592E+00       -10.892              -1.10E-06
               6        0.000      0.16202148412719E-01         0.441
               7        0.000      0.72673990055793E-01         1.978
               8        0.000      0.28126982799409E+00         7.654
               9        0.000      0.31900187202589E+00         8.680
              10        0.000      0.41316682977140E+00        11.243
              11        0.000      0.46217382173963E+00        12.576
              12        0.000      0.56169594458220E+00        15.285
              13        0.000      0.59037555896470E+00        16.065
              14        0.000      0.61446367554312E+00        16.720
              15        0.000      0.78469340252459E+00        21.353
  
 HOMO :        5 A                -0.40028386133592E+00
 LUMO :        6 A                 0.16202148412719E-01
  


 All Electron Calculation, thus no Orbital Energies of the Core Orbitals are calculated


 Fit test: (difference of exact and fit density, squared integrated, result summed over spins)
         Sum-of-Fragments:                             0.00000000022391
         Orthogonalized Fragments:                     0.00002725692338
         SCF:                                          0.00009603256083



 ==========================
 Electron Density at Nuclei
 ==========================
  
 The electron density is calculated at points on a small sphere around the center of a nucleus.
 The printed electron density is the average electron density on these points.
 The radius of the sphere is the printed approximate finite nuclear radius.
 Note: ZORA-4 density is used, which includes small component density

         Atom        Nuclear Radius (Angstrom)             Electron Density (a.u.)
         ----        -------------------------             -----------------------
     1)   O                 0.0000345546                              313.78322
     2)   H                 0.0000181514                                0.47243
     3)   H                 0.0000181514                                0.45230



 ===========================================
 L O C A L   Q T A I M   P R O P E R T I E S
 ===========================================
  
 Module written by Juan I. Rodriguez-Hernandez,
 ESFM-Instituto Politecnico Nacional-Mexico.
 Any questions/comments to: juan@esfm.ipn.mx and/or SCM technical support.
 This subroutine was vectorized, its efficientcy is reported in
 Juan I. Rodriguez et. al., J. Comput. Chem. 34, 681 (2013).
 Additional CP properties added by L. Joubert and V. Tognetti,
 University of Rouen, France.
  
  
  THIS IS THE GEOMETRY IN THE CP SEARCH (ANGSTROM):
  
 Atom              X            Y           Z
  1  8        -0.048828   -1.668352   -1.064393
  2  1        -0.566397   -1.432871   -1.847689
  3  1        -0.106020   -2.642666   -0.893841
  
 TOTAL NUMBER OF CRITICAL POINTS:            5
 NUMBER OF (3,-1) CRITICAL POINTS:           2
 NUMBER OF (3,+1) CRITICAL POINTS:           0
 NUMBER OF (3,+3) CRITICAL POINTS:           0
 NUMBER OF (3,-3) CRITICAL POINTS:           3
    Poincare-Hopf satisfied
  
 --------------------------------------------------------
CP #    1
(RANK,SIGNATURE):     (3,-3)    

CP COORDINATES:     -0.048828   -1.668352   -1.064393

VALUES OF SOME FUNCTIONS AT CPs (a.u.):

                Rho =    0.3143157E+03
 --------------------------------------------------------
CP #    2
(RANK,SIGNATURE):     (3,-3)    

CP COORDINATES:     -0.566397   -1.432871   -1.847689

VALUES OF SOME FUNCTIONS AT CPs (a.u.):

                Rho =    0.4724887E+00
 --------------------------------------------------------
CP #    3
(RANK,SIGNATURE):     (3,-3)    

CP COORDINATES:     -0.106020   -2.642666   -0.893841

VALUES OF SOME FUNCTIONS AT CPs (a.u.):

                Rho =    0.4523540E+00
 --------------------------------------------------------
CP #    4
(RANK,SIGNATURE):     (3,-1)    

CP COORDINATES:     -0.452331   -1.490074   -1.673680

EIGENVALUES OF HESSIAN MATRIX:

     -0.1630699E+01  -0.1583952E+01   0.1344404E+01

EIGENVECTORS (ORTHONORMAL) OF HESSIAN MATRIX (COLUMNS):

     -0.2668094E+00  -0.8039132E+00   0.5315415E+00
     -0.9555011E+00   0.1486510E+00  -0.2547950E+00
     -0.1258189E+00   0.5758702E+00   0.8078014E+00


HESSIAN MATRIX:

     -0.7599129E+00  -0.4085169E+00   0.1255809E+01
                     -0.1436521E+01  -0.6083454E+00
                                      0.3261866E+00

VALUES OF SOME FUNCTIONS AT CPs (a.u.):

                Rho =    0.3479286E+00
        |GRAD(Rho)| =    0.9734909E-12
         GRAD(Rho)x =    0.7164842E-14
         GRAD(Rho)y =   -0.9533444E-12
         GRAD(Rho)z =   -0.1968949E-12
          Laplacian =   -0.1870247E+01
 (-1/4)Del**2(Rho)) =    0.4675618E+00
            Diamond =    0.6975508E+01
        Metallicity =   -0.6341583E+01     Comput.Theor.Chem. 1053 (2015) 112
        Ellipticity =    0.2951262E-01
 
INHOMOGENEITY PARAMETERS AT CPs (a.u.)

            Delta_u =    0.1522814E+01     J.Phys.Chem.A, 113 (2009) 12322; PCCP, 16 (2014) 14539
            Delta_s =    0.1005749E+01     >>
            Delta_t =    0.1314780E+01     >>
            Inhom_s =    0.9942837E+00     Chem.Phys.Lett. 579 (2013) 122
           Inhom_ex =    0.9670468E+00     >>
 
ENERGY COMPONENTS AT CPs (a.u.)

        Gb(Abramov) =    0.1824724E+00     ActaCryst. 153 (1997) 264; Chem.Phys.Lett. 285 (1998) 170
        Vb(Abramov) =   -0.8325067E+00     >>
        Hb(Abramov) =   -0.6500342E+00     >>
             Ex_ueg =   -0.1807334E+00     PCCP, 16 (2014) 14539
             Ec_ueg =   -0.2222081E-01     >>
           Delta_ex =    0.1932607E+00     >>
           Delta_ec =    0.6381961E-01     >>
           Delta_et =   -0.1573252E+01     >>
                Pxc =    0.8133523E+01     JCP, 132 (2010) 211101
                Qxc =    0.3028234E+01     >>


 --------------------------------------------------------
CP #    5
(RANK,SIGNATURE):     (3,-1)    

CP COORDINATES:     -0.096098   -2.422001   -0.936713

EIGENVALUES OF HESSIAN MATRIX:

     -0.1465321E+01  -0.1422992E+01   0.1244125E+01

EIGENVECTORS (ORTHONORMAL) OF HESSIAN MATRIX (COLUMNS):

      0.5924134E+00  -0.8040296E+00   0.5082095E-01
      0.1166379E+00   0.1480148E+00   0.9820831E+00
      0.7971461E+00   0.5758716E+00  -0.1814663E+00


HESSIAN MATRIX:

     -0.1430959E+01   0.1301921E+00  -0.4458620E-01
                      0.1148833E+01  -0.4792559E+00
                                     -0.1362061E+01

VALUES OF SOME FUNCTIONS AT CPs (a.u.):

                Rho =    0.3269066E+00
        |GRAD(Rho)| =    0.4456304E-15
         GRAD(Rho)x =   -0.4436081E-16
         GRAD(Rho)y =   -0.3669482E-15
         GRAD(Rho)z =    0.2489328E-15
          Laplacian =   -0.1644188E+01
 (-1/4)Del**2(Rho)) =    0.4110469E+00
            Diamond =    0.5719919E+01
        Metallicity =   -0.6501814E+01     Comput.Theor.Chem. 1053 (2015) 112
        Ellipticity =    0.2974620E-01
 
INHOMOGENEITY PARAMETERS AT CPs (a.u.)

            Delta_u =    0.1379484E+01     J.Phys.Chem.A, 113 (2009) 12322; PCCP, 16 (2014) 14539
            Delta_s =    0.9900295E+00     >>
            Delta_t =    0.1280857E+01     >>
            Inhom_s =    0.1010071E+01     Chem.Phys.Lett. 579 (2013) 122
           Inhom_ex =    0.1001788E+01     >>
 
ENERGY COMPONENTS AT CPs (a.u.)

        Gb(Abramov) =    0.1713938E+00     ActaCryst. 153 (1997) 264; Chem.Phys.Lett. 285 (1998) 170
        Vb(Abramov) =   -0.7538346E+00     >>
        Hb(Abramov) =   -0.5824408E+00     >>
             Ex_ueg =   -0.1663221E+00     PCCP, 16 (2014) 14539
             Ec_ueg =   -0.2065423E-01     >>
           Delta_ex =    0.1657290E+00     >>
           Delta_ec =    0.5626074E-01     >>
           Delta_et =   -0.1351346E+01     >>
                Pxc =    0.8052688E+01     JCP, 132 (2010) 211101
                Qxc =    0.2945731E+01     >>


 ----------------------------------------------------------------
 BOND PATHS (BP) AND PROPERTIES ALONG THEM ARE WRITTEN TO TAPE21
 ----------------------------------------------------------------
 #BP   #CP     Atom   Atom    Distance     BP Lenth    BP Steps
 -----------------------------------------------------------
   1     4       1      2     0.967927     0.968303      17
   2     5       1      3     0.990781     0.991076      17
 -----------------------------------------------------------




 =============================================
 A T O M I C   Q T A I M   P R O P E R T I E S
 =============================================
  
  
 Written by J.I. Rodriguez, ESFM-Instituto Politecnico Nacional-Mexico.
 Comments/questions to: juan@esfm.ipn.mx and/or SCM technical support.

 Additional Properties by L. Joubert & V. Tognetti - Univ.Rouen, France
 Atomis Volumes, Shannon Entropy
 (see manual for references)

 Bader atomic properties are calculated using a grid-based method
 reported in the articles
 - Juan I. Rodriguez et al. J. Comput. Chem. 30 (2009) 1082.
 - Juan I. Rodriguez, R.F.W. Bader, P.W. Ayers, C. Michel, A.W. Gotz, C. Bo,
   Chem. Phys. Lett. 472 (2009) 149.
 The convergence of the atomic integration of the Laplacian is
 not monotone but sinusoidal. So the integration of the Laplacian
 is not always closer to zero as a larger grid is used
 (see references above).


   Atom         Population     Net charge    Spin density      Laplacian
 -------------------------------------------------------------------------
   1 O  :         9.1040        -1.1040         0.0000        -1.7281E-03
   2 H  :         0.4444         0.5556         0.0000         5.7209E-04
   3 H  :         0.4516         0.5484         0.0000         1.1255E-03
 -------------------------------------------------------------------------
  Total :        10.0000         0.0000         0.0000        -3.0527E-05


   Atom     Vol(0.002 a.u.)      Vol(0.001 a.u.)    Vol(0.0004 a.u.)
 -------------------------------------------------------------------------
   1 O  :       115.0059             148.5723           205.1616
   2 H  :        16.6524              22.5367            32.4312
   3 H  :        17.4680              23.6361            33.6086
 -------------------------------------------------------------------------
  Total :       149.1263             194.7452           271.2014


   Atom       Shannon entropy      Shape Shannon       Shape Renyi
 -------------------------------------------------------------------------
   1 O  :         5.3513               2.6314             0.1999
   2 H  :         1.3242               0.2347             7.6495
   3 H  :         1.3651               0.2405             7.6817
 -------------------------------------------------------------------------


                  ATOMIC DIPOLE MOMENTS
 ====================================================
   Atom            X              Y              Z
 ----------------------------------------------------
   1 O  :        0.1414         0.1772         0.1522
   2 H  :        0.0864        -0.0290         0.1273
   3 H  :        0.0137         0.1522        -0.0196
 ----------------------------------------------------
 Total           0.2414         0.3004         0.2600
 El corr         1.4061        32.1611        20.6263
 Nuc            -2.0089       -32.9235       -21.2720
 Sum            -0.3613        -0.4620        -0.3858
 (Debye)        -0.9183        -1.1744        -0.9805


                      ATOMIC SPHERICAL TENSOR QUADRUPOLE MOMENTS
 =================================================================================
   Atom           Q20            Q21c           Q21s           Q22c           Q22s
 ---------------------------------------------------------------------------------
    1O           0.0224         0.5256        -0.4896        -0.4619        -0.1178
    2H          -0.0024        -0.0068        -0.0130        -0.0060        -0.0074
    3H           0.0012         0.0013        -0.0142        -0.0038        -0.0084
 -----------------------------------------------------------------------
 Total           0.0211         0.5202        -0.5168        -0.4717        -0.1335
 El corr         9.1827        -7.3762      -116.0166        92.3801        -8.9231
 Nuc            -9.1105         9.6309       118.8553       -95.7258        10.7837
 Sum             0.0934         2.7748         2.3219        -3.8175         1.7270


 ATOMIC BASIN POPULATION DECOMPOSITION OVER OCCUPIED ORBITALS
 ============================================================

 A                                                                                                                                                               
   1 O  :    1/ 2.000 (22.0%) |    2/ 1.825 (20.0%) |    3/ 1.509 (16.6%) |    4/ 1.806 (19.8%) |    5/ 1.963 (21.6%) | 
   2 H  :    1/ 0.000 ( 0.0%) |    2/ 0.091 (20.4%) |    3/ 0.243 (54.7%) |    4/ 0.092 (20.8%) |    5/ 0.018 ( 4.1%) | 
   3 H  :    1/ 0.000 ( 0.0%) |    2/ 0.084 (18.6%) |    3/ 0.248 (54.9%) |    4/ 0.101 (22.4%) |    5/ 0.018 ( 4.1%) | 



 ===================================================
 N O N - L O C A L   Q T A I M   P R O P E R T I E S
 ===================================================
  

 LOCALIZATION AND DELOCALIZATION INDEXES (MATRIX ELEMENTS)
 =========================================================

   1 O  :     8.3920
   2 H  :     0.7079    0.0847
   3 H  :     0.7161    0.0115    0.0878

 Statistics for the grid-based AIM method
 --------------------------------------------------
                     Total number of points   54272
        Total number of non-assigned points    7455
                                   (failed)       0
                                 (screened)    7455



 ==========================
 C O N C E P T U A L  D F T
 ==========================
  
 Written by L. Joubert & V. Tognetti - Univ.Rouen, France
 All results in a.u. (except dissociation energies in eV)
 All calculations are based on the Frontier Molecular Orbitals (FMO) theory
 Condensed (atomic or diatomic) values are obtained using a QTAIM partition
 of molecular space


 General reviews on CDFT:
 ------------------------
 H. Chermette, J. Comput. Chem. 20, 129 (1999)
 P. Geerlings, F. de Proft, W. Langenaecker, Chem. Rev. 103, 1793 (2003)

 All formulas used for ADF calculations can be found in this reference:
 G. Hoffmann, V. Tognetti and L. Joubert, J. Mol. Model. 24, 281 (2018)


 GLOBAL DESCRIPTORS
 ==================

 Electronic chemical potential (mu)    =   -0.192
                                mu+    =    0.016
                                mu-    =   -0.400
 Electronegativity (chi=-mu)           =    0.192
 Hardness (eta)                        =    0.417
 Softness (S)                          =    2.401
 Hyperhardness (gamma)                 =    0.351
 Electrophilicity index (w=omega)      =    0.044
 Dissocation energy (nucleofuge)       =    1.646 (eV)
 Dissociation energy (electrofuge)     =   12.098 (eV)
 Electrodonating power (w-)            =    0.211
 Electroaccepting power(w+)            =    0.019
 Net Electrophilicity                  =    0.229


 References for global descriptors:
 ----------------------------------
 C. Morell, A. Grand, A. Toro-Labbe, J. Mol. Model. 19, 2893 (2013)
 R. G. Parr, L.v. Szenpály, S. Liu, J. Am. Chem. Soc. 121, 1922 (1999)
 P.W. Ayers, J.S.M. Anderson, J.I. Rodrigueza, Z. Jaweda, Phys. Chem. Chem. Phys. 7, 1918 (2005)
 J.L. Gazquez, A. Cedillo, A. Vela, J. Phys. Chem. A 111, 1966 (2007)
 P.K. Chattaraj, A. Chakraborty, S. Giri, J. Phys. Chem. A 113, 10068 (2009)
 F. Guegan, P. Mignon, V. Tognetti, L. Joubert, C. Morell, Phys. Chem. Chem. Phys. 16, 15558 (2014)


 ATOMIC DESCRIPTORS: CANONICAL ENSEMBLE
 ======================================

   Atom              f+             f-            f0             f(2)
 ---------------------------------------------------------------------
   1 O  :          0.5646         0.9816         0.7731        -0.4170
   2 H  :          0.2020         0.0092         0.1056         0.1929
   3 H  :          0.2280         0.0092         0.1186         0.2189
 ---------------------------------------------------------------------
  Total :          0.9947         1.0000         0.9974        -0.0053
 ---------------------------------------------------------------------


 ATOMIC DESCRIPTORS: GRAND CANONICAL ENSEMBLE
 ============================================

   Atom             S*f+           S*f-           S*f0           s(2)
 ---------------------------------------------------------------------
   1 O  :          1.3556         2.3568         1.8562        -2.4038
   2 H  :          0.4851         0.0220         0.2536         1.1117
   3 H  :          0.5475         0.0220         0.2848         1.2616
 ---------------------------------------------------------------------
  Total :          2.3882         2.4009         2.3946        -0.0304
 ---------------------------------------------------------------------

 Please note that s(2)=S^2*f(2) (approximation)


 COMPOSITE FUKUI FUNCTIONS
 =========================

   Atom            mu+*f+         mu-*f-          w*f+
 ------------------------------------------------------
   1 O  :          0.0091        -0.3930         0.0250
   2 H  :          0.0033        -0.0037         0.0089
   3 H  :          0.0037        -0.0037         0.0101
 ------------------------------------------------------
  Total :          0.0161        -0.4003         0.0440
 ------------------------------------------------------


 COMPOSITE DUAL DESCRIPTORS
 ==========================

   Atom            w*f(2)         S*f(2)        S^2*f(2)
 ------------------------------------------------------
   1 O  :         -0.0185        -1.0012        -2.4038
   2 H  :          0.0085         0.4630         1.1117
   3 H  :          0.0097         0.5255         1.2616
 ------------------------------------------------------
  Total :         -0.0002        -0.0127        -0.0304
 ------------------------------------------------------


 CONDENSED LOCAL ELECTROPHILICITY AND NUCLEOPHILICITY
 ====================================================

   Atom            electro        nucleo
 -------------------------------------------
   1 O  :          0.2160        -0.4970
   2 H  :          0.1137         0.0163
   3 H  :          0.1284         0.0190
 -------------------------------------------
  Total :          0.4581        -0.4617
 -------------------------------------------


 References for atomic descriptors:
 ----------------------------------
 R.G. Parr, W.T. Yang, J. Am. Chem. Soc. 106, 4049 (1984)
 C. Morell, A. Grand, A. Toro-Labbe, J. Phys. Chem. A 109, 205 (2005)
 A. Toro-Labbe, P. Jaque, J.S. Murray and P. Politzer, Chem. Phys. Lett. 407, 143 (2005)
 J. Padmanabhan, R. Parthasarathi, M. Elango, V. Subramanian, B.S. Krishnamoorthy, S. Gutierrez-Oliva, A. Toro-Labbe, D.R. Roy, P.K. Chattaraj, J. Phys. Chem. A 111, 130 (2007)
 P.K. Chattaraj, B. Maiti, U. Sarkar, J. Phys. Chem. A 107, 4973 (2003)
 C. Morell, J.L. Gazquez, A. Vela, F. Guegan, H. Chermette, Phys. Chem. Chem. Phys. 16, 26832 (2014)


 CONDENSED LINEAR RESPONSE FUNCTION (MATRIX ELEMENTS)
 ====================================================

   1 O  :    -0.9708
   2 H  :     0.4706   -0.4914
   3 H  :     0.5002    0.0208   -0.5210


 SOFTNESS KERNEL (with f0 Fukui Function) - MATRIX ELEMENTS
 ==========================================================


   1 O  :     2.4059
   2 H  :    -0.2746    0.5182
   3 H  :    -0.2800    0.0093    0.5548


 References for non-local descriptors:
 -------------------------------------
 P. Geerlings, S. Fias, Z. Boisdenghien, F. De Proft, Chem. Soc. Rev. 43, 4989 (2014)
 S. Fias, F. Heidar-Zadeh, P. Geerlings, P.W. Ayers, PNAS 114, 11633 (2017)



 =======================================
 M U L L I K E N   P O P U L A T I O N S
 =======================================
  
 The survey below gives for each atom:
 a) the total charge (Z minus electrons)
 b) the net spin polarization (nr of electrons spin-A minus spin-B)
 c) for each spin the atomic electron valence density (integrated) per L-value.

 Atom              Charge    Spin density          S         P         D         F
 ----              ------    ------------       ------    ------    ------    ------
 1 O              -0.6083                       3.7729    4.8006    0.0349    0.0000
 2 H               0.3086                       0.5864    0.1050    0.0000    0.0000
 3 H               0.2997                       0.5981    0.1022    0.0000    0.0000

 Populations of individual BAS functions
 ----------------------------------------
 1 O            0.6817  1.2808  0.0085  1.0221  0.7798  0.2924  0.2339  0.2629  0.9976  0.9079
                0.9538  0.4866  0.2869  0.3785 -0.0091  0.0024  0.0107  0.0229  0.0012  0.0068
 2 H           -0.0433  0.2248  0.4048  0.0451  0.0255  0.0344
 3 H           -0.0642  0.2840  0.3782  0.0430  0.0263  0.0329

 Gross Charges per Atom (Z minus electrons)
 ==========================================
            -0.6083    0.3086    0.2997
 Net Total:  0.00000000


 Atom-Atom Population Matrix (off-diagonal elements not doubled)
 ===============================================================

     1 :     7.8557
     2 :     0.3779    0.3550
     3 :     0.3747   -0.0414    0.3670



 =================================================
 H I R S H F E L D   C H A R G E   A N A L Y S I S
 =================================================
  
 For each fragment: the (numerical) integral of rho(scf) * rho(fragment)/rho(sum-of-fragments)
 (nuclear charges are included, electrons are counted negative)

 The fragments and their ordering are defined in the early G E O M E T R Y output section.
 If you use single-atom fragments, this usually implies that all atoms of the same
 chemical type are grouped together. This may not be the order in which you listed them
 in the input file!

    1  O                        -0.3350
    2  H                         0.1655
    3  H                         0.1695

 Sum of these charges (accuracy NumInt/Tails) =           0.00000203



 =============================
 V O R O N O I   C H A R G E S
 =============================
  
 For each atom: the (numerical) integral of the total electronic charge density in its Voronoi cell,
 i.e. the region of space that is closer to that atom than to any other atom.
 (cf. Wigner-Seitz cells in crystals)

 Within the Voronoi cell the subintegrals over the atomic sphere and the remaining part are evaluated
 separately to give the numbers of electrons (negative charge) in these regions.
 The net total charge in the cell (including the nuclear charge) is also given.

 Values are provided for
    a) the Initial (sum-of-fragments) density
    b) the Orthogonalized-Fragments density
    c) the SCF density
    d) the Voronoi Deformation Density (VDD): the difference SCF-Initial for the complete atomic cell


  Atom                Initial                    OrthFrag                   SCF
             Sphere RestCell NetTotal   Sphere RestCell NetTotal   Sphere RestCell NetTotal      VDD
 -----       ------------------------   ------------------------   ------------------------    -----
    1 O      -2.667   -4.344    0.989   -2.782   -4.430    0.788   -2.696   -4.623    0.680   -0.309
    2 H      -0.076   -1.427   -0.503   -0.077   -1.325   -0.402   -0.102   -1.249   -0.351    0.151
    3 H      -0.074   -1.412   -0.486   -0.076   -1.310   -0.386   -0.098   -1.231   -0.329    0.157
 ---------------------------------------------------------------------------------------------------
 Total NetCharge:               0.000                      0.000                      0.000    0.000
 (accuracy NumInt/Tails)

 Remark: the 'NetTotal' Voronoi charges often do not match the Mulliken and/or Hirshfeld charges very
 well. This is caused by the fact that chemically different atoms are not treated in accordance with
 their relative sizes. (Voronoi cells are defined by boundary planes halfway between the atoms.)
 However, the CHANGES in charge, comparing 'Initial' to 'SCF' for instance, do give a fair indication
 of the flow of charge caused by the relaxation from sum-of-fragments to self-consistency.

 Warning: the absolute accuracy of the VDD charges obtained using the Fuzzy Cells (Becke) integration
 scheme is much poorer than the one obtained with an 'equivalent' Voronoi integration grid. 



 =================================================================
 M U L T I P O L E   D E R I V E D   C H A R G E   A N A L Y S I S
 =================================================================

 This charge analysis uses the atomic multipoles (obtained from the fitted density) up to some level X,
 and reconstructs these multipoles exactly (up to level X) by distributing charges over all atoms.
 This is achieved by using Lagrange multipliers and a weight function to keep the multipoles local.

 Dummy atoms can be included (by setting INCDUM in MDC-block to 1) to obtain a fractional charge.
 This is generally useful and necessary only for small symmetrical molecules, when there are not
 enough degrees of freedom to reconstruct the multipoles.

 Since the atomic multipoles are reconstructed up to level X,
 the molecular multipoles are represented also up to level X.
 The recommended level is to reconstruct up to quadrupole : -> MDC-q charges.

 See: M. Swart, P.Th. van Duijnen, J.G. Snijders, J.Comput.Chem., (2001), p. 79-88.

 ------------------------------------------------------------- 
 Atomic electronic multipole moments from SCF equations (a.u.)
 ------------------------------------------------------------- 

   atom        charge        dip-x     dip-y     dip-z      quad-xx   quad-xy   quad-xz   quad-yy   quad-yz   quad-zz
 --------------------------------------------------------------------------------------------------------------------
    1 O     -0.217930    -0.211844 -0.251478 -0.231133    -0.548259 -0.066721  0.415312  0.519609 -0.349499  0.028651
    2 H      0.104027    -0.046326  0.052741 -0.078286    -0.054762 -0.019445  0.097940 -0.015644 -0.051093  0.070406
    3 H      0.113902     0.011429 -0.099215  0.041450    -0.112849  0.007118  0.034501  0.174712 -0.046277 -0.061863

 --------------------------------------- 
 Multipole derived atomic charges (a.u.)
 --------------------------------------- 

 The MDC-m charges are just the Monopole terms in the multipole expansion, while for the MDC-d charges
 also the Dipoles are reconstructed. The usually preferred charges are the MDC-q charges.
 These reconstruct the Monopoles, Dipoles and Quadrupoles (both atomic AND molecular).

        Atom    Level:     MDC-m        MDC-d        MDC-q
 ---------------------------------------------------------
     1     O           -0.217930    -0.663218    -0.457082
     2     H            0.104027     0.332314     0.196902
     3     H            0.113902     0.330903     0.260180

 ------------------------------------------------ 
 Average absolute deviations in atomic multipoles
 ------------------------------------------------ 

 Stated here are the average differences between the atomic multipoles
 and the reconstructed atomic multipoles (from the distributed charges).
 If these values are not zero, this means there are not enough degrees of freedom,
 to be able to reconstruct the atomic multipoles. (This usually happens only
 for small and/or highly symmetric molecules). If this is the case, one could add
 dummy atoms as extra point charges (and setting INCDUM in MDC-block to 1).

 Level:                                 MDC-d        MDC-q
 ---------------------------------------------------------
 Charge   (a.u.)                       0.0000       0.0000
 Dipole   (Debye)                      0.0000       0.1937
 Quad.    (a.u.)                       0.1323       0.0466

 --------------------------------------- 
 Represented molecular multipole moments
 --------------------------------------- 

 Given here are the Molecular multipole moments from the atomic charges, and from the Fit Density.
 Note that the atomic charges represent the latter, NOT the ones from the Exact density.

            Q (a.u.)             Dipole moment (Debye)                                          Quadrupole moment (a.u.)
                                 x         y         z              xx        xy        xz        yy        yz        zz
------------------------------------------------------------------------------------------------------------------------
MDC-m         0.0000       -0.2899   -0.4154   -0.2981         -0.9525    0.5281    0.5803    1.0205    0.8435   -0.0680
MDC-d         0.0000       -0.9170   -1.1727   -0.9792         -2.8162    1.6519    1.8462    2.7464    2.5910    0.0697
MDC-q         0.0000       -0.5610   -0.9949   -0.5277         -2.1092    1.0470    1.1086    2.6262    1.7366   -0.5170
 
Fit.Dens.     0.0000       -0.9171   -1.1727   -0.9792         -3.3484    1.5334    2.1261    3.2551    2.2310    0.0933



 =============
 Dipole Moment  ***  (Debye)  ***
 =============
  
 Vector   :        -0.91830382     -1.17433161     -0.98050548
 Magnitude:         1.78430032

 This molecular dipole moment is calculated with analytic integration



 =========================================
 Quadrupole Moment (Buckingham convention)  ***  (a.u.)  ***
 =========================================
  
      quad-xx        quad-xy        quad-xz        quad-yy        quad-yz        quad-zz
     -3.35272184     1.49566746     2.40308418     3.25931267     2.01082446     0.09340917

 This molecular quadrupole moment is calculated with analytic integration
1



 ===========================
 B O N D I N G   E N E R G Y  ***  (decomposition)  ***
 ===========================
  
*** IMPORTANT NOTE ***

The bond energy is computed as an energy difference between molecule and
fragments. In particular when the fragments are single atoms, they are usually
computed as SPHERICALLY SYMMETRIC and SPIN-RESTRICTED. Obviously, this usually
does NOT represent the true atomic groundstate.

To obtain the 'real' bond energy, (atomic) correction terms must be applied
for the true (multiplet) fragment ground state. See ref: E.J.Baerends,
V.Branchadell, M.Sodupe, Chem.Phys.Lett.265 (1997) 481

General theoretical background on the bond energy decomposition scheme used
here (Morokuma-Ziegler) can be found in the review paper:
F.M. Bickelhaupt and E.J. Baerends,
"Kohn-Sham Density Functional Theory: Predicting and Understanding Chemistry"
In: Rev. Comput. Chem.; Lipkowitz, K. B. and Boyd, D. B., Eds.;
Wiley-VCH: New York, 2000, Vol. 15, 1-86.

Symbols used in the Bickelhaupt-Baerends (BB) paper are given below to make
the direct connection to that paper, where detailed explanations can be found
on the meaning of the various terms.


                                                   hartree              eV         kcal/mol           kJ/mol
                                      --------------------     -----------       ----------      -----------

Pauli Repulsion
  Kinetic (Delta T^0):                   3.590624067588481         97.7059          2253.15          9427.18
  Delta V^Pauli Coulomb:                -1.930146203165848        -52.5220         -1211.19         -5067.60
  Delta V^Pauli LDA-XC:                 -0.444505360519783        -12.0956          -278.93         -1167.05
  Delta V^Pauli MetaHybrid-LDA:          0.051042881932624          1.3889            32.03           134.01
                                      --------------------     -----------       ----------      -----------
  Total Pauli Repulsion:                 1.267015385835474         34.4772           795.06          3326.55
 (Total Pauli Repulsion =
  Delta E^Pauli in BB paper)

Steric Interaction
  Pauli Repulsion (Delta E^Pauli):       1.267015385835474         34.4772           795.06          3326.55
  Electrostatic Interaction:            -0.237740889831301         -6.4693          -149.18          -624.19
 (Electrostatic Interaction =
  Delta V_elstat in the BB paper)
                                      --------------------     -----------       ----------      -----------
  Total Steric Interaction:              1.029274496004174         28.0080           645.88          2702.36
 (Total Steric Interaction =
  Delta E^0 in the BB paper)

Orbital Interactions
  A:                                    -1.521049046799818        -41.3899          -954.47         -3993.51
  MetaHybrid correction:                -0.296897038476957         -8.0790          -186.31          -779.50
                                      --------------------     -----------       ----------      -----------
  Total Orbital Interactions:           -1.817946085276775        -49.4688         -1140.78         -4773.02

Alternative Decomposition Orb.Int.
  Kinetic:                              -2.911507789113976        -79.2262         -1827.00         -7644.16
  Coulomb:                               1.475848262960304         40.1599           926.11          3874.84
  XC:                                   -0.382286559123104        -10.4025          -239.89         -1003.69
                                      --------------------     -----------       ----------      -----------
  Total Orbital Interactions:           -1.817946085276776        -49.4688         -1140.78         -4773.02

  Residu (E=Steric+OrbInt+Res):         -0.000005886812677         -0.0002            -0.00            -0.02

Total Bonding Energy:                   -0.788677476085279        -21.4610          -494.90         -2070.67


Summary of Bonding Energy (energy terms are taken from the energy decomposition above)
======================================================================================

  Electrostatic Energy:                 -0.237740889831301         -6.4693          -149.18          -624.19
  Kinetic Energy:                        0.679116278474504         18.4797           426.15          1783.02
  Coulomb (Steric+OrbInt) Energy:       -0.454303827018221        -12.3622          -285.08         -1192.77
  XC Energy:                            -0.775749037710263        -21.1092          -486.79         -2036.73
                                      --------------------     -----------       ----------      -----------
  Total Bonding Energy:                 -0.788677476085279        -21.4610          -494.90         -2070.67


Correction terms (incorporated in energies above; only for test purposes):

1. Indication of fit-quality: 1st-order fit-correction used in the energy (hartree):   0.0002043745
2. Electrostatic (Fit correction):   0.0000000000

Scaled ZORA energy correction, not included in bonding energy (hartree):           -0.0000124534
 NOTE: This scaled ZORA energy correction should only be used to compare two calculations
 in which the only difference in the calculation is the electron configuration.
 Then the difference in energy of this term should be added to the difference in energy of
 the two electron configurations.
 This term should not be used otherwise.
 In practice it is useful only for core excitation energy calculations.

 TOTAL BONDING ENERGIES FROM VARIOUS XC FUNCTIONALS 

 with respect to fragments in FRAGMENTS input block 

                                hartree               eV              kcal/mol            kJ/mol

 Total Bonding Energy with respect to FRAGMENTS 

XC Energy Functional
====================
FR: KCIS-modified  [1]  =        -0.4967512963      -13.5172905358     -311.7161774471    -1304.2203436942
FR: KCIS-original  [2]  =        -0.5023360876      -13.6692604397     -315.2206872768    -1318.8832112168
FR: PKZB           [3]  =        -0.5038604048      -13.7107392231     -316.1772109054    -1322.8853056410
FR: VS98           [4]  =        -0.5369810909      -14.6119989473     -336.9607573848    -1409.8436545936
FR: LDA(VWN)       [5]  =        -0.5428234366      -14.7709772612     -340.6268850125    -1425.1827309091
FR: PW91           [6]  =        -0.5234414251      -14.2435658953     -328.4644879342    -1374.2952671029
FR: BLYP           [7]  =        -0.5034921613      -13.7007188053     -315.9461345435    -1321.9184822486
FR: BP             [8]  =        -0.5173867923      -14.0788109537     -324.6651480835    -1358.3988309072
FR: PBE            [9]  =        -0.5202824892      -14.1576068740     -326.4822254784    -1366.0014818957
FR: RPBE           [10] =        -0.5089050666      -13.8480114535     -319.3427842738    -1336.1300631648
FR: revPBE         [11] =        -0.5102929752      -13.8857783699     -320.2137102023    -1339.7740168509
FR: OLYP           [12] =        -0.5119872611      -13.9318822347     -321.2768907605    -1344.2223638196
FR: FT97           [13] =        -0.5018229419      -13.6552970367     -314.8986835000    -1317.5359475624
FR: BLAP3          [14] =        -0.5290837574      -14.3971015679     -332.0051052526    -1389.1092083415
FR: HCTH/93        [15] =        -0.5167567621      -14.0616669602     -324.2697981363    -1356.7446869093
FR: HCTH/120       [16] =        -0.5222301431      -14.2106052351     -327.7043969266    -1371.1150466751
FR: HCTH/147       [17] =        -0.5218992883      -14.2016022182     -327.4967823890    -1370.2463875450
FR: HCTH/407       [18] =        -0.5175071186      -14.0820851978     -324.7406539589    -1358.7147474556
FR: BmTau1         [19] =        -0.5260846891      -14.3154927690     -330.1231613263    -1381.2351558159
FR: BOP            [20] =        -0.5006286333      -13.6227982442     -314.1492434150    -1314.4002905898
FR: PKZBx-KCIScor  [21] =        -0.4989533136      -13.5772104777     -313.0979643660    -1310.0017395301
FR: VS98-x(xc)     [22] =        -0.4972555680      -13.5310124672     -312.0326127573    -1305.5443088873
FR: VS98-x-only    [23] =        -0.5010521731      -13.6343233479     -314.4150186647    -1315.5122941129
FR: Becke00        [24] =        -0.5445201110      -14.8171461231     -341.6915644415    -1429.6373491525
FR: Becke00x(xc)   [25] =        -0.5109119061      -13.9026203344     -320.6020951957    -1341.3990194854
FR: Becke00-x-only [26] =        -0.6094211258      -16.5831925921     -382.4175703705    -1600.0349393096
FR: Becke88x+BR89c [27] =        -0.5247088370      -14.2780539274     -329.2598009841    -1377.6228565394
FR: OLAP3          [28] =        -0.5375788573      -14.6282649972     -337.3358614696    -1411.4130899125
FR: TPSS           [29] =        -0.5318108403      -14.4713092696     -333.7163757972    -1396.2691635164
FR: mPBE           [30] =        -0.5171940383      -14.0735658492     -324.5441930800    -1357.8927552280
FR: OPBE           [31] =        -0.5255183226      -14.3000811512     -329.7677609175    -1379.7481606681
FR: OPerdew        [32] =        -0.5258818922      -14.3099743830     -329.9959043005    -1380.7027124782
FR: mPBEKCIS       [33] =        -0.5085804179      -13.8391773141     -319.1390641456    -1335.2776982418
FR: mPW            [34] =        -0.5191882443      -14.1278309562     -325.7955763859    -1363.1285424071
FR: tau-HCTH       [35] =        -0.5297761261      -14.4159418796     -332.4395732348    -1390.9270221803
FR: XLYP           [36] =        -0.5027432356      -13.6803395013     -315.4761765502    -1319.9521782199
FR: KT1            [37] =        -0.5339441890      -14.5293606428     -335.0550724909    -1401.8702698700
FR: KT2            [38] =        -0.5538349367      -15.0706154271     -347.5367064332    -1454.0934205688
FR: M06-L          [39] =        -0.5583582313      -15.1937005350     -350.3751169299    -1465.9693287874
FR: BLYP-D         [40] =        -0.5035658686      -13.7027244836     -315.9923865911    -1322.1120007949
FR: BP86-D         [41] =        -0.5174512862      -14.0805659222     -324.7056186252    -1358.5681596352
FR: PBE-D          [42] =        -0.5203285562      -14.1588604229     -326.5111330082    -1366.1224309871
FR: TPSS-D         [43] =        -0.5318722631      -14.4729806682     -333.7549191702    -1396.4304289717
FR: B97-D          [44] =        -0.5159876183      -14.0407374923     -323.7871530583    -1354.7253001238
FR: revTPSS        [45] =        -0.5289042054      -14.3922157109     -331.8924346953    -1388.6377947814
FR: PBEsol         [46] =        -0.5304705815      -14.4348389724     -332.8753506211    -1392.7503145651
FR: RGE2           [47] =        -0.5214199703      -14.1885593101     -327.1960057332    -1368.9879381546
FR: SSB-D          [48] =        -0.5322859774      -14.4842384093     -334.0145288908    -1397.5166359238
FR: MVS            [49] =        -0.5813635734      -15.8197077451     -364.8111885733    -1526.3698459324
FR: MVSx           [50] =        -0.5287938861      -14.3892137683     -331.8232082425    -1388.3481513349
FR: t-MGGA         [51] =        -0.5074305444      -13.8078876621     -318.4175075086    -1332.2587056028
FR: TPSSh          [52] =        -0.5883182634      -16.0089544890     -369.1753228974    -1544.6293819462
FR: B3LYP(VWN5)    [53] =        -0.6228158067      -16.9476804031     -390.8228603869    -1635.2026688892
FR: O3LYP(VWN5)    [54] =        -0.6013008049      -16.3622274179     -377.3219915441    -1578.7150398331
FR: KMLYP(VWN5)    [55] =        -0.8451240388      -22.9969951923     -530.3233969218    -2218.8728498696
FR: PBE0           [56] =        -0.6651453066      -18.0995247024     -417.3850254170    -1746.3387552115
FR: B3LYP*(VWN5)   [57] =        -0.5958127363      -16.2128894716     -373.8781761113    -1564.3061176394
FR: BHandH         [58] =        -0.8161719936      -22.2091699560     -512.1557123193    -2142.8592658125
FR: BHandHLYP      [59] =        -0.7948474293      -21.6288990382     -498.7743448096    -2086.8716302796
FR: B97            [60] =        -0.6271830454      -17.0665190152     -393.5633443459    -1646.6688525185
FR: B97-1          [61] =        -0.6382896833      -17.3687460119     -400.5328656328    -1675.8293263915
FR: B97-2          [62] =        -0.6415161240      -17.4565419298     -402.5574879391    -1684.3003451941
FR: mPBE0KCIS      [63] =        -0.6542153481      -17.8021053987     -410.5263721838    -1717.6421532246
FR: mPBE1KCIS      [64] =        -0.6116899485      -16.6449303980     -383.8412782366    -1605.9917323696
FR: B1LYP(VWN5)    [65] =        -0.6491697953      -17.6648089218     -407.3602396765    -1704.3950562641
FR: B1PW91(VWN5)   [66] =        -0.6627966839      -18.0356154276     -415.9112422804    -1740.1724472428
FR: mPW1PW         [67] =        -0.6643485797      -18.0778446613     -416.8850717094    -1744.2469491276
FR: mPW1K          [68] =        -0.7677027385      -20.8902544194     -481.7407923796    -2015.6032547127
FR: tau-HCTH-hybrid[69] =        -0.6081802617      -16.5494269608     -381.6389162850    -1596.7770509725
FR: X3LYP(VWN5)    [70] =        -0.6342618440      -17.2591429268     -398.0053580203    -1665.2542356982
FR: OPBE0          [71] =        -0.6690721817      -18.2063804103     -419.8491769963    -1756.6487642908
FR: M05            [72] =        -0.6592670711      -17.9395697764     -413.6963765749    -1730.9054501451
FR: M05-2X         [73] =        -0.7982717631      -21.7220799022     -500.9231469423    -2095.8622174186
FR: M06            [74] =        -0.6611089327      -17.9896893812     -414.8521623123    -1735.7412571413
FR: M06-2X         [75] =        -0.7886774761      -21.4610060679     -494.9026402855    -2070.6724203235
FR: B3LYP-D        [76] =        -0.6228803006      -16.9494353716     -390.8633309286    -1635.3719976173

 REFERENCES FOR XC ENERGY FUNCTIONALS 

[ 1] J.B. Krieger, J. Chen, G.J. Iafrate, and S. Kurth
     modified Krieger-Chen-Iafrate-Savin functional, unpublished
[ 2] original Krieger-Chen-Iafrate-Savin functional
     J.B. Krieger, J. Chen, G.J. Iafrate, and A. Savin
     In: Electron Correlations and Materials Properties
     Editors: A. Gonis and N. Kioussis (Plenum, New York, 1999)
[ 3] J.P. Perdew, S. Kurth, A. Zupan, and P. Blaha
     Phys. Rev. Lett. 82 (1999) 2544, Ibid. E 82 (1999) 5179
[ 4] T. van Voorhis and G.E. Scuseria, J. Chem. Phys. 109 (1998) 400
[ 5] S.H. Vosko, L. Wilk, and M. Nusair, Can. J. Phys. 58 (1980) 1200
[ 6] J.P. Perdew in: Electronic Structure of Solids 1991
     Ed. P. Ziesche and H. Eschrig (Akademie, Berlin, 1991) p. 11
      and
      J.P. Perdew, J.A. Chevary, S.H. Vosko, K.A. Jackson, M.R. Pederson
      D.J. Singh, and C. Fiolhais, Phys. Rev. B46 (1992) 6671
      Ibid. E 48 (1993) 4978
[ 7] A.D. Becke, Phys. Rev. A38 (1988) 3098
      and
      C. Lee, W. Yang, and R.G. Parr, Phys. Rev. B37 (1988) 785
[ 8] A.D. Becke, Phys. Rev. A38 (1988) 3098
      and
     J.P. Perdew, Phys. Rev. B33 (1986) 8822
     Erratum: J.P. Perdew, Phys. Rev. B34 (1986) 7406
[ 9] J.P. Perdew, K. Burke, and M. Ernzerhof, Phys. Rev. Lett.
      77 (1996) 3865, Ibid. E 78 (1997) 1396
[10] B. Hammer, L.B. Hansen, J.K. Norskov, Phys. Rev. B59 (1999) 7413
[11] Y. Zhang and W. Yang, Phys. Rev. Lett. 80 (1998) 890
[12] N.C. Handy, and A.J. Cohen Mol.Phys.99 (2001) 403
      and
      C. Lee, W. Yang, and R.G. Parr, Phys. Rev. B37 (1988) 785
[13] M. Filatov and W. Thiel, Mol. Phys. 91 (1997) 847
[14] E.I. Proynov, S. Sirois, and D.R. Salahub
     Int. J. Quant. Chem. 64 (1997) 427
[15] F.A. Hamprecht, A.J. Cohen, D.J. Tozer, and N.C. Handy
      J. Chem. Phys. 109 (1998) 6264
[16] A.D. Boese, N.L. Doltsinis, N.C. Handy, and M. Sprik
      J. Chem. Phys. 112 (2000), 1670
[17] A.D. Boese, N.L. Doltsinis, N.C. Handy, and M. Sprik
      J. Chem. Phys. 112 (2000), 1670
[18] A.D. Boese and N.C. Handy, J. Chem. Phys. 114, (2001) 5497
[19] E.I. Proynov, H. Chermette, and D.R. Salahub, J. Chem. Phys. 113, (2000) 10013
[20] A.D. Becke, Phys. Rev. A38 (1988) 3098
      and
      T. Tsuneda, T. Suzumura, and K. Hirao
      J. Chem. Phys. 110 (1999) 10664
[21] PKZB exchange, KCIS correlation as in
     S. Kurth, J.P. Perdew, and P. Blaha,
     Int. J. Quant. Chem. 75 (1999) 889
[24] A.D. Becke, J. Chem. Phys. 112 (2000) 4020
[25] A.D. Becke, J. Chem. Phys. 112 (2000) 4020
[26] A.D. Becke, J. Chem. Phys. 112 (2000) 4020
[27] A.D. Becke and M.R. Roussel, Phys. Rev. A39 (1989) 3761
     A.D. Becke, J. Chem. Phys. 88 (1988) 1053
     A.D. Becke, Int. J. Quant. Chem. (Symp.) 28 (1994) 625
[28] N.C. Handy, and A.J. Cohen Mol.Phys.99 (2001) 403
      and
     E.I. Proynov, S. Sirois, and D.R. Salahub
     Int. J. Quant. Chem. 64 (1997) 427
[29] J. Tao, J.P. Perdew, V.N. Staroverov and G.E. Scuseria
     Phys. Rev. Lett. 91 (2003) 146401
     V.N. Staroverov, G.E. Scuseria, J. Tao and J.P. Perdew
     J. Chem. Phys. 119(23) (2003) 12129-12137
[30] C. Adamo, V. Barone
     J. Chem. Phys. 116 (2002) 5933
[31] M. Swart, A.W. Ehlers, K. Lammertsma, Mol. Phys. 102 (2004) 2467
     see also:
     N.C. Handy, and A.J. Cohen Mol.Phys.99 (2001) 403
     J.P. Perdew, K. Burke, and M. Ernzerhof, Phys. Rev. Lett. 77 (1996) 3865, 78 (1997) 1396
[32] N.C. Handy, and A.J. Cohen Mol.Phys.99 (2001) 403
      and
     J.P. Perdew, Phys. Rev. B33 (1986) 8822
     Erratum: J.P. Perdew, Phys. Rev. B34 (1986) 7406
[33] J. Toulouse and C. Adamo
     Chem. Phys. Lett. 362 (2002) 72
[34] C. Adamo and V. Barone
     J. Chem. Phys. 108 (1998) 664
[35] A.D. Boese and N.C. Handy
     J. Chem. Phys. 116 (2002) 9559
[36] X. Xu and W.A. Goddard III
     PNAS 101 (2004) 2673
[37] T.W. Keal and D.J. Tozer
     J. Chem. Phys. 119 (2003) 3015
[38] T.W. Keal and D.J. Tozer
     J. Chem. Phys. 119 (2003) 3015
[39] Y. Zhao and D.G. Truhlar
     J. Chem. Phys. 125 (2006) 194101
[40] S. Grimme
     J. Comput. Chem. 27 (2006) 1787
[41] S. Grimme
     J. Comput. Chem. 27 (2006) 1787
[42] S. Grimme
     J. Comput. Chem. 27 (2006) 1787
[43] S. Grimme
     J. Comput. Chem. 27 (2006) 1787
[44] S. Grimme
     J. Comput. Chem. 27 (2006) 1787
[45] J.P. Perdew, A. Ruzsinszky, G.I. Csonka, L.A. Constantin, and J. Sun,
     Phys. Rev. Lett. 103, 026403 (2009)
[46] J.P. Perdew, A. Ruzsinszky, G.I. Csonka, O.A. Vydrov, G.E. Scuseria,
     L.A. Constantin, X. Zhou, and K. Burke, Phys.Rev.Lett. 100, 136406 (2008)
[47] A. Ruzsinszky, G.I. Csonka, and G.E. Scuseria
     J. Chem. Theory Comput. 5, 763 (2009)
[48] M. Swart, M. Sola and F.M. Bickelhaupt
     J. Chem. Phys. 2009, 131, 094103
     See also: J. Comp. Meth. Sci. Engin. 2009, 9, 69
     Contains portions of :
     Disp.Correction: S. Grimme, J. Comput. Chem. 27 (2006) 1787
     KT1: T.W. Keal and D.J. Tozer, J. Chem. Phys. 119 (2003) 3015
[49] J. Sun, J.P. Perdew, A. Ruzsinszky
     PNAS 112, 685 (2014)
[50] J. Sun, J.P. Perdew, A. Ruzsinszky
     PNAS 112, 685 (2014)
[51] P. de Silva and C. Corminboeuf
     J. Chem. Phys. 143, 111105 (2015)
     P. de Silva and C. Corminboeuf
     J. Chem. Theory Comput. 10, 3745 (2014)
[52] J. Tao, J.P. Perdew, V.N. Staroverov and G.E. Scuseria
     Phys. Rev. Lett. 91 (2003) 146401
     V.N. Staroverov, G.E. Scuseria, J. Tao and J.P. Perdew
     J. Chem. Phys. 119(23) (2003) 12129-12137
     Exact exchange based on: M.A. Watson et al.
     J. Chem. Phys. 119(13) (2003) 6475-6481
[53] P.J. Stephens, F.J. Devlin, C.F. Chabalowski and M.J. Frisch
     J. Phys. Chem. 98 (1994) 11623-11627
     Exact exchange based on: M.A. Watson et al.
     J. Chem. Phys. 119(13) (2003) 6475-6481
     VWN1/VWN5 see: R.H. Hertwig, W. Koch, Chem. Phys. Lett. 268 (1997) 345-351
[54] A.J. Cohen and N.C. Handy
     Mol. Phys., 99(7) (2001) 607-615
     Exact exchange based on: M.A. Watson et al.
     J. Chem. Phys. 119(13) (2003) 6475-6481
[55] J.K. Kang and C.B. Musgrave
     J. Chem. Phys. 115(24) (2001) 11040-11051
     Exact exchange based on: M.A. Watson et al.
     J. Chem. Phys. 119(13) (2003) 6475-6481
[56] J.P. Perdew, M. Ernzerhof and K. Burke, J.Chem.Phys. 105 (1996) 9982
     M. Ernzerhof and G. Scuseria, J. Chem. Phys. 110 (1999) 5029
     C. Adamo and V. Barone, J. Chem. Phys. 110 (1999) 6158
     Exact exchange based on: M.A. Watson et al.
     J. Chem. Phys. 119(13) (2003) 6475-6481
[57] M. Reiher, O. Salomon and B.A. Hess
     Theor. Chem. Acc., 107 (2001) 48
     Exact exchange based on: M.A. Watson et al.
     J. Chem. Phys. 119(13) (2003) 6475-6481
     VWN1/VWN5 see: R.H. Hertwig, W. Koch, Chem. Phys. Lett. 268 (1997) 345-351
[58] 50% exact exchange and 50% LDA exchange, plus LYP correlation
     Exact exchange based on: M.A. Watson et al.
     J. Chem. Phys. 119(13) (2003) 6475-6481
      C. Lee, W. Yang, and R.G. Parr, Phys. Rev. B37 (1988) 785
[59] 50% exact exchange and 50% Becke88 exchange, plus LYP correlation
     Exact exchange based on: M.A. Watson et al.
     J. Chem. Phys. 119(13) (2003) 6475-6481
      C. Lee, W. Yang, and R.G. Parr, Phys. Rev. B37 (1988) 785
[60] A.D. Becke
     J. Chem. Phys. 107(20) (1997) 8554
     Exact exchange based on: M.A. Watson et al.
     J. Chem. Phys. 119(13) (2003) 6475-6481
[61] F.A. Hamprecht, A.J. Cohen, D.J. Tozer and N.C. Handy
     J. Chem. Phys. 109(15) (1998) 6264
     Exact exchange based on: M.A. Watson et al.
     J. Chem. Phys. 119(13) (2003) 6475-6481
[62] P.J. Wilson, T.J. Bradley and D.J. Tozer
     J. Chem. Phys. 115(20) (2001) 9233
     Exact exchange based on: M.A. Watson et al.
     J. Chem. Phys. 119(13) (2003) 6475-6481
[63] J. Toulouse and C. Adamo
     Chem. Phys. Lett. 362 (2002) 72
     Exact exchange based on: M.A. Watson et al.
     J. Chem. Phys. 119(13) (2003) 6475-6481
[64] J. Toulouse and C. Adamo
     Chem. Phys. Lett. 362 (2002) 72
     Exact exchange based on: M.A. Watson et al.
     J. Chem. Phys. 119(13) (2003) 6475-6481
[65] C. Adamo and V. Barone
     Chem. Phys. Lett. 274 (1997) 242
     Exact exchange based on: M.A. Watson et al.
     J. Chem. Phys. 119(13) (2003) 6475-6481
     VWN1/VWN5 see: R.H. Hertwig, W. Koch, Chem. Phys. Lett. 268 (1997) 345-351
[66] C. Adamo and V. Barone
     Chem. Phys. Lett. 274 (1997) 242
     Exact exchange based on: M.A. Watson et al.
     J. Chem. Phys. 119(13) (2003) 6475-6481
     VWN1/VWN5 see: R.H. Hertwig, W. Koch, Chem. Phys. Lett. 268 (1997) 345-351
[67] C. Adamo and V. Barone
     J. Chem. Phys. 108 (1998) 664
     Exact exchange based on: M.A. Watson et al.
     J. Chem. Phys. 119(13) (2003) 6475-6481
[68] B.J. Lynch, P.L. Fast, M. Harris and D.G. Truhlar
     J. Phys. Chem. A, 104 (2000) 4811
     Exact exchange based on: M.A. Watson et al.
     J. Chem. Phys. 119(13) (2003) 6475-6481
[69] A.D. Boese and N.C. Handy
     J. Chem. Phys. 116 (2002) 9559
     Exact exchange based on: M.A. Watson et al.
     J. Chem. Phys. 119(13) (2003) 6475-6481
[70] X. Xu and W.A. Goddard III
     PNAS 101 (2004) 2673
[71] OPBE mixed with 25% exact exchange
     M. Swart, A.W. Ehlers, K. Lammertsma, Mol. Phys. 102 (2004) 2467
     see also:
     N.C. Handy, and A.J. Cohen Mol.Phys.99 (2001) 403
     J.P. Perdew, K. Burke, and M. Ernzerhof, Phys. Rev. Lett. 77 (1996) 3865, 78 (1997) 1396
[72] Y. Zhao, N. E. Schultz and D.G. Truhlar
     J. Chem. Phys. 123 (2005) 161103
[73] Y. Zhao, N. E. Schultz and D.G. Truhlar
     J. Chem. Theory Comput. 2 (2006) 364
[74] Y. Zhao and D.G. Truhlar
     Theor. Chem. Acc. 120 (2008) 215.
     http://dx.doi.org/10.1007/s00214-007-0310-x
[75] Y. Zhao and D.G. Truhlar
     Theor. Chem. Acc. 120 (2008) 215.
     http://dx.doi.org/10.1007/s00214-007-0310-x
[76] S. Grimme
     J. Comput. Chem. 27 (2006) 1787
1



 =======================================================
 S F O   P O P U L A T I O N S ,   M O   A N A L Y S I S
 =======================================================
  
 A Mulliken population analysis is performed on (input-)selected MOs. All populations refer to SFOs.
 BAS populations may have been printed directly after the SCF part.


                                       === A ===


 SFO contributions (%) per orbital
 (multiplication by the orbital occupation yields the SFO Gross Populations)

 Orb.:        1      2      3      4      5      6      7      8      9
 occup:     2.00   2.00   2.00   2.00   2.00   0.00   0.00   0.00   0.00
 CF+SFO     ----   ----   ----   ----   ----   ----   ----   ----   ----
 ------
      1:  100.12   0.00   0.00   0.00  -0.00   0.00   0.00  -0.01  -0.00
      2:    0.00  80.22   0.02   8.64   0.00   0.39  -0.00   7.56   0.30
      3:   -0.00  -0.06   0.00  -0.30  -0.00   2.23   0.00  -9.60  -0.49
      6:    0.00   0.72   5.63  21.34  61.20   0.07   0.32   2.15   3.28
      7:   -0.00  -0.01  -0.08   0.00   0.02   0.94  -1.68  -1.21  -0.95
      9:    0.00   0.93  34.91  34.13   2.07   0.40   2.46   7.66  12.57
     10:   -0.00  -0.02  -0.54  -0.01   0.00   1.23 -11.83  -3.18  -3.14
     12:    0.00   0.88  23.35  24.47  31.41   0.04   1.41   1.78  11.84
     13:   -0.00  -0.01  -0.33   0.01   0.01   1.13  -7.26  -1.16  -3.30
     20:   -0.03   7.75  13.83   2.97  -0.00  10.52  40.50  18.45  22.20
     21:   -0.00   0.26   3.05   0.98   0.00  28.65  19.67  12.83  26.72
     22:   -0.01  -0.51   0.68   0.35   0.00   0.16   3.00   1.07  -1.70
     23:   -0.01   0.33   0.07   0.18   1.69   1.01  -0.37   0.02   2.16
     24:   -0.00   0.15   0.21   0.87   0.06   0.22  -0.24   2.60   0.33
     25:   -0.02   0.81  -0.06   0.12   0.87   2.37  -0.96   0.42   3.63
     26:   -0.03   7.39  14.41   3.60   0.00  16.15  38.33  27.36   8.31
     27:   -0.00   0.17   2.94   1.06   0.00  30.83  15.17  28.84  14.35
     28:   -0.00  -0.51   0.56   0.32  -0.00   0.02   3.01   0.40  -1.13
     29:   -0.00  -0.00   0.17   0.36   1.62  -0.02   0.00   0.22   1.22
     30:   -0.02   1.23  -0.03   0.08   0.05   3.49  -1.75   2.82   3.66
     31:   -0.00   0.08   0.15   0.58   0.83   0.10  -0.18   1.19   1.10


 Summation over all MOs, multiplied by occupation: Total SFO Gross Populations in this Irrep
 ===========================================================================================

     2.00    1.78   -0.01   -0.00    0.00    1.78   -0.00   -0.00    1.44   -0.01   -0.00    1.60
    -0.01   -0.00    0.01    0.01    0.00    0.01    0.00    0.49    0.09    0.01    0.05    0.03
     0.03    0.51    0.08    0.01    0.04    0.03    0.03



 List of all MOs, ordered by energy, with the most significant SFO gross populations
 ===================================================================================

 Each percentage contribution in the table below corres ponds to the indicated SFO.
 In general, a SFO may be a linear combination of several Fragment Orbitals on the same,
 or on symmetry-related Fragments. Only the first 'member' of such a combination is
 specified here. A full definition of all SFOs is given in an earlier part of the output.
 The numbering of the SFOs in this table does NOT include the Core Orbitals, and starts
 from one for each symmetry representation, as in the SFO definition list earlier.

       E(eV)  Occ       MO           %     SFO (first member)   E(eV)  Occ   Fragment
 -------------------------------------------------------------------------------------

     -16.757  2.00     3 A         34.91%     1 P:y           -10.736  1.33     1 O
                                   23.35%     1 P:z           -10.736  1.33     1 O
                                   14.41%     1 S              -6.547  1.00     3 H
                                   13.83%     1 S              -6.547  1.00     2 H
                                    5.63%     1 P:x           -10.736  1.33     1 O
                                    3.05%     2 S               3.632  0.00     2 H
                                    2.94%     2 S               3.632  0.00     3 H
     -12.687  2.00     4 A         34.13%     1 P:y           -10.736  1.33     1 O
                                   24.47%     1 P:z           -10.736  1.33     1 O
                                   21.34%     1 P:x           -10.736  1.33     1 O
                                    8.64%     2 S             -29.918  2.00     1 O
                                    3.60%     1 S              -6.547  1.00     3 H
                                    2.97%     1 S              -6.547  1.00     2 H
                                    1.06%     2 S               3.632  0.00     3 H
     -10.892  2.00     5 A         61.20%     1 P:x           -10.736  1.33     1 O
                                   31.41%     1 P:z           -10.736  1.33     1 O
                                    2.07%     1 P:y           -10.736  1.33     1 O
                                    1.69%     1 P:x            12.638  0.00     2 H
                                    1.62%     1 P:x            12.638  0.00     3 H
       0.441  0.00     6 A         30.83%     2 S               3.632  0.00     3 H
                                   28.65%     2 S               3.632  0.00     2 H
                                   16.15%     1 S              -6.547  1.00     3 H
                                   10.52%     1 S              -6.547  1.00     2 H
                                    3.49%     1 P:y            12.638  0.00     3 H
                                    2.37%     1 P:z            12.638  0.00     2 H
                                    2.23%     3 S              24.243  0.00     1 O
                                    1.23%     2 P:y            11.795  0.00     1 O
                                    1.13%     2 P:z            11.795  0.00     1 O
                                    1.01%     1 P:x            12.638  0.00     2 H
       1.978  0.00     7 A         40.50%     1 S              -6.547  1.00     2 H
                                   38.33%     1 S              -6.547  1.00     3 H
                                   19.67%     2 S               3.632  0.00     2 H
                                   15.17%     2 S               3.632  0.00     3 H
                                  -11.83%     2 P:y            11.795  0.00     1 O
                                   -7.26%     2 P:z            11.795  0.00     1 O
                                    3.01%     3 S              41.584  0.00     3 H
                                    3.00%     3 S              41.584  0.00     2 H
                                    2.46%     1 P:y           -10.736  1.33     1 O
                                   -1.75%     1 P:y            12.638  0.00     3 H
                                   -1.68%     2 P:x            11.795  0.00     1 O
                                    1.41%     1 P:z           -10.736  1.33     1 O



 =======================================================================
 Electrostatic potential at the Nuclei due to electrons and other nuclei
 =======================================================================
  
         Atom                  Potential
         ----                  ---------
     1)   O                  22.38154244
     2)   H                   0.98609228
     3)   H                   0.98124896
 Mulliken charges used for AMS results%charges...


    =====================
     CALCULATION RESULTS
    =====================

Energy (hartree)            -0.78867748


--------------
Atomic charges
--------------
  Index   Atom    Charge
      1      O   -0.6083
      2      H    0.3086
      3      H    0.2997


Dipole moment vector    (Debye):    -0.91830382   -1.17433161   -0.98050548
              magnitude (Debye):     1.78430032


AMS application finished. Exiting.
NORMAL TERMINATION
     Total cpu time:       3.22
  Total system time:       1.49
 Total elapsed time:       6.25
